 Entering Gaussian System, Link 0=g16
 Initial command:
 /shared/centos7/gaussian/g16/l1.exe "/scratch/harms.n/gauss_scrdir/Gau-34052.inp" -scrdir="/scratch/harms.n/gauss_scrdir/"
 Entering Link 1 = /shared/centos7/gaussian/g16/l1.exe PID=     34053.
  
 Copyright (c) 1988,1990,1992,1993,1995,1998,2003,2009,2016,
            Gaussian, Inc.  All Rights Reserved.
  
 This is part of the Gaussian(R) 16 program.  It is based on
 the Gaussian(R) 09 system (copyright 2009, Gaussian, Inc.),
 the Gaussian(R) 03 system (copyright 2003, Gaussian, Inc.),
 the Gaussian(R) 98 system (copyright 1998, Gaussian, Inc.),
 the Gaussian(R) 94 system (copyright 1995, Gaussian, Inc.),
 the Gaussian 92(TM) system (copyright 1992, Gaussian, Inc.),
 the Gaussian 90(TM) system (copyright 1990, Gaussian, Inc.),
 the Gaussian 88(TM) system (copyright 1988, Gaussian, Inc.),
 the Gaussian 86(TM) system (copyright 1986, Carnegie Mellon
 University), and the Gaussian 82(TM) system (copyright 1983,
 Carnegie Mellon University). Gaussian is a federally registered
 trademark of Gaussian, Inc.
  
 This software contains proprietary and confidential information,
 including trade secrets, belonging to Gaussian, Inc.
  
 This software is provided under written license and may be
 used, copied, transmitted, or stored only in accord with that
 written license.
  
 The following legend is applicable only to US Government
 contracts under FAR:
  
                    RESTRICTED RIGHTS LEGEND
  
 Use, reproduction and disclosure by the US Government is
 subject to restrictions as set forth in subparagraphs (a)
 and (c) of the Commercial Computer Software - Restricted
 Rights clause in FAR 52.227-19.
  
 Gaussian, Inc.
 340 Quinnipiac St., Bldg. 40, Wallingford CT 06492
  
  
 ---------------------------------------------------------------
 Warning -- This program may not be used in any manner that
 competes with the business of Gaussian, Inc. or will provide
 assistance to any competitor of Gaussian, Inc.  The licensee
 of this program is prohibited from giving any competitor of
 Gaussian, Inc. access to this program.  By using this program,
 the user acknowledges that Gaussian, Inc. is engaged in the
 business of creating and licensing software in the field of
 computational chemistry and represents and warrants to the
 licensee that it is not a competitor of Gaussian, Inc. and that
 it will not use this program in any manner prohibited above.
 ---------------------------------------------------------------
  

 Cite this work as:
 Gaussian 16, Revision A.03,
 M. J. Frisch, G. W. Trucks, H. B. Schlegel, G. E. Scuseria, 
 M. A. Robb, J. R. Cheeseman, G. Scalmani, V. Barone, 
 G. A. Petersson, H. Nakatsuji, X. Li, M. Caricato, A. V. Marenich, 
 J. Bloino, B. G. Janesko, R. Gomperts, B. Mennucci, H. P. Hratchian, 
 J. V. Ortiz, A. F. Izmaylov, J. L. Sonnenberg, D. Williams-Young, 
 F. Ding, F. Lipparini, F. Egidi, J. Goings, B. Peng, A. Petrone, 
 T. Henderson, D. Ranasinghe, V. G. Zakrzewski, J. Gao, N. Rega, 
 G. Zheng, W. Liang, M. Hada, M. Ehara, K. Toyota, R. Fukuda, 
 J. Hasegawa, M. Ishida, T. Nakajima, Y. Honda, O. Kitao, H. Nakai, 
 T. Vreven, K. Throssell, J. A. Montgomery, Jr., J. E. Peralta, 
 F. Ogliaro, M. J. Bearpark, J. J. Heyd, E. N. Brothers, K. N. Kudin, 
 V. N. Staroverov, T. A. Keith, R. Kobayashi, J. Normand, 
 K. Raghavachari, A. P. Rendell, J. C. Burant, S. S. Iyengar, 
 J. Tomasi, M. Cossi, J. M. Millam, M. Klene, C. Adamo, R. Cammi, 
 J. W. Ochterski, R. L. Martin, K. Morokuma, O. Farkas, 
 J. B. Foresman, and D. J. Fox, Gaussian, Inc., Wallingford CT, 2016.
 
 ******************************************
 Gaussian 16:  EM64L-G16RevA.03 25-Dec-2016
                23-May-2019 
 ******************************************
 %nprocshared=20
 Will use up to   20 processors via shared memory.
 %mem=5GB
 ----------------------------------------------------------------------
 #p m062x/cc-pVTZ opt=(ts,calcfc,noeigentest,maxcycles=900) freq scf=(m
 axcycle=900) IOP(7/33=1,2/16=3)
 ----------------------------------------------------------------------
 1/5=1,6=900,10=4,11=1,18=20,26=3,38=1/1,3;
 2/9=110,12=2,16=3,17=6,18=5,40=1/2;
 3/5=16,6=1,11=2,25=1,30=1,71=2,74=-55,140=1/1,2,3;
 4//1;
 5/5=2,7=900,38=5/2;
 8/6=4,10=90,11=11/1;
 11/6=1,8=1,9=11,15=111,16=1/1,2,10;
 10/6=1,13=1/2;
 6/7=2,8=2,9=2,10=2,28=1/1;
 7/10=1,18=20,25=1,33=1/1,2,3,16;
 1/5=1,6=900,10=4,11=1,18=20,26=3/3(2);
 2/9=110,16=3/2;
 99//99;
 2/9=110,16=3/2;
 3/5=16,6=1,11=2,25=1,30=1,71=1,74=-55/1,2,3;
 4/5=5,16=3,69=1/1;
 5/5=2,7=900,38=5/2;
 7/33=1/1,2,3,16;
 1/5=1,6=900,11=1,18=20,26=3/3(-5);
 2/9=110,16=3/2;
 6/7=2,8=2,9=2,10=2,19=2,28=1/1;
 99/9=1/99;
 Leave Link    1 at Thu May 23 12:16:29 2019, MaxMem=   671088640 cpu:              19.7 elap:               1.0
 (Enter /shared/centos7/gaussian/g16/l101.exe)
 ------------------------------
 Gaussian input prepared by ASE
 ------------------------------
 Symbolic Z-matrix:
 Charge =  0 Multiplicity = 2
 O                     1.48587  -0.54028   0.32718 
 O                     1.1634    0.44746  -0.59731 
 C                    -1.08384   0.69892   0.36354 
 C                    -1.56542  -0.60429  -0.19812 
 H                     0.09845   0.80397  -0.20246 
 H                    -0.79354   0.68612   1.41247 
 H                    -1.63306   1.58791   0.07487 
 H                    -2.5153   -0.89399   0.26035 
 H                    -0.84381  -1.39476  -0.00258 
 H                    -1.72147  -0.53667  -1.2733 
 H                     2.11007  -0.07777   0.89914 
 
 Add virtual bond connecting atoms H5         and O2         Dist= 2.25D+00.
 Add virtual bond connecting atoms H5         and C3         Dist= 2.48D+00.
 ITRead=  0  0  0  0  0  0  0  0  0  0  0
 MicOpt= -1 -1 -1 -1 -1 -1 -1 -1 -1 -1 -1
 NAtoms=     11 NQM=       11 NQMF=       0 NMMI=      0 NMMIF=      0
                NMic=       0 NMicF=      0.
                    Isotopes and Nuclear Properties:
 (Nuclear quadrupole moments (NQMom) in fm**2, nuclear magnetic moments (NMagM)
  in nuclear magnetons)

  Atom         1           2           3           4           5           6           7           8           9          10
 IAtWgt=          16          16          12          12           1           1           1           1           1           1
 AtmWgt=  15.9949146  15.9949146  12.0000000  12.0000000   1.0078250   1.0078250   1.0078250   1.0078250   1.0078250   1.0078250
 NucSpn=           0           0           0           0           1           1           1           1           1           1
 AtZEff=  -0.0000000  -0.0000000  -0.0000000  -0.0000000  -0.0000000  -0.0000000  -0.0000000  -0.0000000  -0.0000000  -0.0000000
 NQMom=    0.0000000   0.0000000   0.0000000   0.0000000   0.0000000   0.0000000   0.0000000   0.0000000   0.0000000   0.0000000
 NMagM=    0.0000000   0.0000000   0.0000000   0.0000000   2.7928460   2.7928460   2.7928460   2.7928460   2.7928460   2.7928460
 AtZNuc=   8.0000000   8.0000000   6.0000000   6.0000000   1.0000000   1.0000000   1.0000000   1.0000000   1.0000000   1.0000000

  Atom        11
 IAtWgt=           1
 AtmWgt=   1.0078250
 NucSpn=           1
 AtZEff=  -0.0000000
 NQMom=    0.0000000
 NMagM=    2.7928460
 AtZNuc=   1.0000000
 Leave Link  101 at Thu May 23 12:16:29 2019, MaxMem=   671088640 cpu:               4.1 elap:               0.2
 (Enter /shared/centos7/gaussian/g16/l103.exe)

 GradGradGradGradGradGradGradGradGradGradGradGradGradGradGradGradGradGrad
 Berny optimization.
 Initialization pass.
                           ----------------------------
                           !    Initial Parameters    !
                           ! (Angstroms and Degrees)  !
 --------------------------                            --------------------------
 ! Name  Definition              Value          Derivative Info.                !
 --------------------------------------------------------------------------------
 ! R1    R(1,2)                  1.3908         calculate D2E/DX2 analytically  !
 ! R2    R(1,11)                 0.9647         calculate D2E/DX2 analytically  !
 ! R3    R(2,5)                  1.1904         calculate D2E/DX2 analytically  !
 ! R4    R(3,4)                  1.4986         calculate D2E/DX2 analytically  !
 ! R5    R(3,5)                  1.315          calculate D2E/DX2 analytically  !
 ! R6    R(3,6)                  1.0884         calculate D2E/DX2 analytically  !
 ! R7    R(3,7)                  1.0841         calculate D2E/DX2 analytically  !
 ! R8    R(4,8)                  1.0938         calculate D2E/DX2 analytically  !
 ! R9    R(4,9)                  1.088          calculate D2E/DX2 analytically  !
 ! R10   R(4,10)                 1.0885         calculate D2E/DX2 analytically  !
 ! A1    A(2,1,11)             101.7493         calculate D2E/DX2 analytically  !
 ! A2    A(1,2,5)              101.5149         calculate D2E/DX2 analytically  !
 ! A3    A(4,3,5)              101.3663         calculate D2E/DX2 analytically  !
 ! A4    A(4,3,6)              115.8919         calculate D2E/DX2 analytically  !
 ! A5    A(4,3,7)              116.7771         calculate D2E/DX2 analytically  !
 ! A6    A(5,3,6)              100.1328         calculate D2E/DX2 analytically  !
 ! A7    A(5,3,7)              105.9841         calculate D2E/DX2 analytically  !
 ! A8    A(6,3,7)              113.6642         calculate D2E/DX2 analytically  !
 ! A9    A(3,4,8)              110.6284         calculate D2E/DX2 analytically  !
 ! A10   A(3,4,9)              110.5679         calculate D2E/DX2 analytically  !
 ! A11   A(3,4,10)             111.2375         calculate D2E/DX2 analytically  !
 ! A12   A(8,4,9)              107.9516         calculate D2E/DX2 analytically  !
 ! A13   A(8,4,10)             107.8163         calculate D2E/DX2 analytically  !
 ! A14   A(9,4,10)             108.5248         calculate D2E/DX2 analytically  !
 ! A15   A(2,5,3)              157.3923         calculate D2E/DX2 analytically  !
 ! D1    D(11,1,2,5)          -101.9077         calculate D2E/DX2 analytically  !
 ! D2    D(1,2,5,3)            -32.2227         calculate D2E/DX2 analytically  !
 ! D3    D(5,3,4,8)            174.2585         calculate D2E/DX2 analytically  !
 ! D4    D(5,3,4,9)             54.7202         calculate D2E/DX2 analytically  !
 ! D5    D(5,3,4,10)           -65.9369         calculate D2E/DX2 analytically  !
 ! D6    D(6,3,4,8)             66.978          calculate D2E/DX2 analytically  !
 ! D7    D(6,3,4,9)            -52.5603         calculate D2E/DX2 analytically  !
 ! D8    D(6,3,4,10)          -173.2174         calculate D2E/DX2 analytically  !
 ! D9    D(7,3,4,8)            -71.1554         calculate D2E/DX2 analytically  !
 ! D10   D(7,3,4,9)            169.3062         calculate D2E/DX2 analytically  !
 ! D11   D(7,3,4,10)            48.6491         calculate D2E/DX2 analytically  !
 ! D12   D(4,3,5,2)            -42.1977         calculate D2E/DX2 analytically  !
 ! D13   D(6,3,5,2)             77.0374         calculate D2E/DX2 analytically  !
 ! D14   D(7,3,5,2)           -164.582          calculate D2E/DX2 analytically  !
 --------------------------------------------------------------------------------
 Trust Radius=3.00D-01 FncErr=1.00D-07 GrdErr=1.00D-06 EigMax=2.50D+02 EigMin=1.00D-04
 Number of steps in this run=    100 maximum allowed number of steps=    100.
 Search for a saddle point of order  1.
 GradGradGradGradGradGradGradGradGradGradGradGradGradGradGradGradGradGrad

 Leave Link  103 at Thu May 23 12:16:29 2019, MaxMem=   671088640 cpu:               0.2 elap:               0.0
 (Enter /shared/centos7/gaussian/g16/l202.exe)
                          Input orientation:                          
 ---------------------------------------------------------------------
 Center     Atomic      Atomic             Coordinates (Angstroms)
 Number     Number       Type             X           Y           Z
 ---------------------------------------------------------------------
      1          8           0        1.485871   -0.540276    0.327182
      2          8           0        1.163404    0.447459   -0.597312
      3          6           0       -1.083841    0.698915    0.363541
      4          6           0       -1.565417   -0.604293   -0.198115
      5          1           0        0.098454    0.803965   -0.202456
      6          1           0       -0.793535    0.686115    1.412465
      7          1           0       -1.633064    1.587914    0.074870
      8          1           0       -2.515300   -0.893993    0.260353
      9          1           0       -0.843810   -1.394762   -0.002584
     10          1           0       -1.721465   -0.536670   -1.273297
     11          1           0        2.110065   -0.077765    0.899135
 ---------------------------------------------------------------------
                    Distance matrix (angstroms):
                    1          2          3          4          5
     1  O    0.000000
     2  O    1.390789   0.000000
     3  C    2.853127   2.456945   0.000000
     4  C    3.096836   2.951611   1.498574   0.000000
     5  H    2.003104   1.190431   1.314994   2.179834   0.000000
     6  H    2.806700   2.815275   1.088431   2.203389   1.848649
     7  H    3.784258   3.093978   1.084111   2.210174   1.920844
     8  H    4.017331   4.008484   2.144080   1.093799   3.151026
     9  H    2.503259   2.788618   2.138959   1.088021   2.400461
    10  H    3.584487   3.122168   2.147667   1.088550   2.501221
    11  H    0.964710   1.846992   3.330335   3.871738   2.457138
                    6          7          8          9         10
     6  H    0.000000
     7  H    1.818574   0.000000
     8  H    2.605490   2.640569   0.000000
     9  H    2.516931   3.086305   1.764592   0.000000
    10  H    3.093473   2.517782   1.763501   1.766723   0.000000
    11  H    3.045967   4.179104   4.740071   3.357522   4.428394
                   11
    11  H    0.000000
 Stoichiometry    C2H7O2(2)
 Framework group  C1[X(C2H7O2)]
 Deg. of freedom    27
 Full point group                 C1      NOp   1
 Largest Abelian subgroup         C1      NOp   1
 Largest concise Abelian subgroup C1      NOp   1
                         Standard orientation:                         
 ---------------------------------------------------------------------
 Center     Atomic      Atomic             Coordinates (Angstroms)
 Number     Number       Type             X           Y           Z
 ---------------------------------------------------------------------
      1          8           0        1.485871   -0.540276    0.327182
      2          8           0        1.163404    0.447459   -0.597312
      3          6           0       -1.083841    0.698915    0.363541
      4          6           0       -1.565417   -0.604293   -0.198115
      5          1           0        0.098454    0.803965   -0.202456
      6          1           0       -0.793535    0.686115    1.412465
      7          1           0       -1.633064    1.587914    0.074870
      8          1           0       -2.515300   -0.893994    0.260353
      9          1           0       -0.843809   -1.394762   -0.002584
     10          1           0       -1.721465   -0.536671   -1.273297
     11          1           0        2.110065   -0.077764    0.899135
 ---------------------------------------------------------------------
 Rotational constants (GHZ):          13.0184344           3.8340731           3.5347764
 Leave Link  202 at Thu May 23 12:16:29 2019, MaxMem=   671088640 cpu:               0.2 elap:               0.0
 (Enter /shared/centos7/gaussian/g16/l301.exe)
 Standard basis: CC-pVTZ (5D, 7F)
 Ernie: Thresh=  0.10000D-02 Tol=  0.10000D-05 Strict=F.
 Ernie:  12 primitive shells out of 160 were deleted.
 There are   245 symmetry adapted cartesian basis functions of A   symmetry.
 There are   218 symmetry adapted basis functions of A   symmetry.
   218 basis functions,   327 primitive gaussians,   245 cartesian basis functions
    18 alpha electrons       17 beta electrons
       nuclear repulsion energy       130.7896640272 Hartrees.
 IExCor= 4336 DFT=T Ex+Corr=M062X ExCW=0 ScaHFX=  0.540000
 ScaDFX=  1.000000  1.000000  1.000000  1.000000 ScalE2=  1.000000  1.000000
 IRadAn=      5 IRanWt=     -1 IRanGd=            0 ICorTp=0 IEmpDi=  4
 NAtoms=   11 NActive=   11 NUniq=   11 SFac= 1.00D+00 NAtFMM=   60 NAOKFM=F Big=F
 Integral buffers will be    131072 words long.
 Raffenetti 2 integral format.
 Two-electron integral symmetry is turned on.
 Leave Link  301 at Thu May 23 12:16:29 2019, MaxMem=   671088640 cpu:               1.1 elap:               0.1
 (Enter /shared/centos7/gaussian/g16/l302.exe)
 NPDir=0 NMtPBC=     1 NCelOv=     1 NCel=       1 NClECP=     1 NCelD=      1
         NCelK=      1 NCelE2=     1 NClLst=     1 CellRange=     0.0.
 One-electron integrals computed using PRISM.
 One-electron integral symmetry used in STVInt
 NBasis=   218 RedAO= T EigKep=  9.61D-04  NBF=   218
 NBsUse=   218 1.00D-06 EigRej= -1.00D+00 NBFU=   218
 Precomputing XC quadrature grid using
 IXCGrd= 4 IRadAn=           5 IRanWt=          -1 IRanGd=           0 AccXCQ= 0.00D+00.
 Generated NRdTot=       0 NPtTot=           0 NUsed=           0 NTot=          32
 NSgBfM=   245   245   245   245   245 MxSgAt=    11 MxSgA2=    11.
 Leave Link  302 at Thu May 23 12:16:29 2019, MaxMem=   671088640 cpu:               5.3 elap:               0.3
 (Enter /shared/centos7/gaussian/g16/l303.exe)
 DipDrv:  MaxL=1.
 Leave Link  303 at Thu May 23 12:16:30 2019, MaxMem=   671088640 cpu:               0.5 elap:               0.0
 (Enter /shared/centos7/gaussian/g16/l401.exe)
 ExpMin= 1.03D-01 ExpMax= 1.53D+04 ExpMxC= 5.22D+02 IAcc=3 IRadAn=         5 AccDes= 0.00D+00
 Harris functional with IExCor= 1009 and IRadAn=       5 diagonalized for initial guess.
 HarFok:  IExCor= 1009 AccDes= 0.00D+00 IRadAn=         5 IDoV= 1 UseB2=F ITyADJ=14
 ICtDFT=  3500011 ScaDFX=  1.000000  1.000000  1.000000  1.000000
 FoFCou: FMM=F IPFlag=           0 FMFlag=      100000 FMFlg1=           0
         NFxFlg=           0 DoJE=T BraDBF=F KetDBF=T FulRan=T
         wScrn=  0.000000 ICntrl=       500 IOpCl=  0 I1Cent=   200000004 NGrid=           0
         NMat0=    1 NMatS0=      1 NMatT0=    0 NMatD0=    1 NMtDS0=    0 NMtDT0=    0
 Petite list used in FoFCou.
 Harris En= -230.614442407390    
 JPrj=0 DoOrth=F DoCkMO=F.
 Initial guess <Sx>= 0.0000 <Sy>= 0.0000 <Sz>= 0.5000 <S**2>= 0.7500 S= 0.5000
 Leave Link  401 at Thu May 23 12:16:30 2019, MaxMem=   671088640 cpu:              15.2 elap:               0.8
 (Enter /shared/centos7/gaussian/g16/l502.exe)
 Keep R1 and R2 ints in memory in canonical form, NReq=591357329.
 FoFCou: FMM=F IPFlag=           0 FMFlag=           0 FMFlg1=           0
         NFxFlg=           0 DoJE=F BraDBF=F KetDBF=F FulRan=T
         wScrn=  0.000000 ICntrl=       600 IOpCl=  0 I1Cent=           0 NGrid=           0
         NMat0=    1 NMatS0=  23871 NMatT0=    0 NMatD0=    1 NMtDS0=    0 NMtDT0=    0
 Symmetry not used in FoFCou.
 Two-electron integral symmetry not used.
 UHF open shell SCF:
 Using DIIS extrapolation, IDIIS=  1040.
 NGot=   671088640 LenX=   101112895 LenY=   101052429
 Requested convergence on RMS density matrix=1.00D-08 within 900 cycles.
 Requested convergence on MAX density matrix=1.00D-06.
 Requested convergence on             energy=1.00D-06.
 No special actions if energy rises.
 Integral accuracy reduced to 1.0D-05 until final iterations.

 Cycle   1  Pass 0  IDiag  1:
 E= -230.514956852121    
 DIIS: error= 3.11D-02 at cycle   1 NSaved=   1.
 NSaved= 1 IEnMin= 1 EnMin= -230.514956852121     IErMin= 1 ErrMin= 3.11D-02
 ErrMax= 3.11D-02  0.00D+00 EMaxC= 1.00D-01 BMatC= 7.25D-01 BMatP= 7.25D-01
 IDIUse=3 WtCom= 6.89D-01 WtEn= 3.11D-01
 Coeff-Com:  0.100D+01
 Coeff-En:   0.100D+01
 Coeff:      0.100D+01
 Gap=     0.346 Goal=   None    Shift=    0.000
 Gap=     0.338 Goal=   None    Shift=    0.000
 GapD=    0.338 DampG=1.000 DampE=0.500 DampFc=0.5000 IDamp=-1.
 Damping current iteration by 5.00D-01
 RMSDP=2.21D-03 MaxDP=8.64D-02              OVMax= 2.52D-01

 Cycle   2  Pass 0  IDiag  1:
 E= -230.594134143498     Delta-E=       -0.079177291377 Rises=F Damp=T
 DIIS: error= 4.70D-03 at cycle   2 NSaved=   2.
 NSaved= 2 IEnMin= 2 EnMin= -230.594134143498     IErMin= 2 ErrMin= 4.70D-03
 ErrMax= 4.70D-03  0.00D+00 EMaxC= 1.00D-01 BMatC= 6.06D-02 BMatP= 7.25D-01
 IDIUse=3 WtCom= 9.53D-01 WtEn= 4.70D-02
 Coeff-Com: -0.108D+00 0.111D+01
 Coeff-En:   0.000D+00 0.100D+01
 Coeff:     -0.103D+00 0.110D+01
 Gap=     0.362 Goal=   None    Shift=    0.000
 Gap=     0.362 Goal=   None    Shift=    0.000
 RMSDP=5.29D-04 MaxDP=1.81D-02 DE=-7.92D-02 OVMax= 9.15D-02

 Cycle   3  Pass 0  IDiag  1:
 E= -230.670305518067     Delta-E=       -0.076171374569 Rises=F Damp=F
 DIIS: error= 4.79D-03 at cycle   3 NSaved=   3.
 NSaved= 3 IEnMin= 3 EnMin= -230.670305518067     IErMin= 2 ErrMin= 4.70D-03
 ErrMax= 4.79D-03  0.00D+00 EMaxC= 1.00D-01 BMatC= 1.53D-02 BMatP= 6.06D-02
 IDIUse=3 WtCom= 9.52D-01 WtEn= 4.79D-02
 Coeff-Com: -0.820D-01 0.350D+00 0.732D+00
 Coeff-En:   0.000D+00 0.000D+00 0.100D+01
 Coeff:     -0.781D-01 0.333D+00 0.745D+00
 Gap=     0.356 Goal=   None    Shift=    0.000
 Gap=     0.271 Goal=   None    Shift=    0.000
 RMSDP=2.48D-04 MaxDP=7.73D-03 DE=-7.62D-02 OVMax= 5.84D-02

 Cycle   4  Pass 0  IDiag  1:
 E= -230.673292009805     Delta-E=       -0.002986491738 Rises=F Damp=F
 DIIS: error= 2.41D-03 at cycle   4 NSaved=   4.
 NSaved= 4 IEnMin= 4 EnMin= -230.673292009805     IErMin= 4 ErrMin= 2.41D-03
 ErrMax= 2.41D-03  0.00D+00 EMaxC= 1.00D-01 BMatC= 5.86D-03 BMatP= 1.53D-02
 IDIUse=3 WtCom= 9.76D-01 WtEn= 2.41D-02
 Coeff-Com: -0.283D-01 0.664D-01 0.403D+00 0.559D+00
 Coeff-En:   0.000D+00 0.000D+00 0.964D-01 0.904D+00
 Coeff:     -0.276D-01 0.648D-01 0.396D+00 0.567D+00
 Gap=     0.356 Goal=   None    Shift=    0.000
 Gap=     0.274 Goal=   None    Shift=    0.000
 RMSDP=1.08D-04 MaxDP=4.31D-03 DE=-2.99D-03 OVMax= 1.26D-02

 Cycle   5  Pass 0  IDiag  1:
 E= -230.674477070086     Delta-E=       -0.001185060281 Rises=F Damp=F
 DIIS: error= 5.31D-04 at cycle   5 NSaved=   5.
 NSaved= 5 IEnMin= 5 EnMin= -230.674477070086     IErMin= 5 ErrMin= 5.31D-04
 ErrMax= 5.31D-04  0.00D+00 EMaxC= 1.00D-01 BMatC= 3.64D-04 BMatP= 5.86D-03
 IDIUse=3 WtCom= 9.95D-01 WtEn= 5.31D-03
 Coeff-Com:  0.142D-02-0.190D-01 0.595D-01 0.164D+00 0.794D+00
 Coeff-En:   0.000D+00 0.000D+00 0.000D+00 0.000D+00 0.100D+01
 Coeff:      0.141D-02-0.189D-01 0.591D-01 0.163D+00 0.796D+00
 Gap=     0.358 Goal=   None    Shift=    0.000
 Gap=     0.275 Goal=   None    Shift=    0.000
 RMSDP=5.40D-05 MaxDP=1.59D-03 DE=-1.19D-03 OVMax= 1.08D-02

 Cycle   6  Pass 0  IDiag  1:
 E= -230.674649491012     Delta-E=       -0.000172420926 Rises=F Damp=F
 DIIS: error= 4.66D-04 at cycle   6 NSaved=   6.
 NSaved= 6 IEnMin= 6 EnMin= -230.674649491012     IErMin= 6 ErrMin= 4.66D-04
 ErrMax= 4.66D-04  0.00D+00 EMaxC= 1.00D-01 BMatC= 1.44D-04 BMatP= 3.64D-04
 IDIUse=3 WtCom= 9.95D-01 WtEn= 4.66D-03
 Coeff-Com:  0.929D-02-0.261D-01-0.781D-01-0.107D+00 0.370D+00 0.832D+00
 Coeff-En:   0.000D+00 0.000D+00 0.000D+00 0.000D+00 0.000D+00 0.100D+01
 Coeff:      0.924D-02-0.260D-01-0.777D-01-0.106D+00 0.368D+00 0.833D+00
 Gap=     0.359 Goal=   None    Shift=    0.000
 Gap=     0.277 Goal=   None    Shift=    0.000
 RMSDP=4.13D-05 MaxDP=1.12D-03 DE=-1.72D-04 OVMax= 1.04D-02

 Cycle   7  Pass 0  IDiag  1:
 E= -230.674731377974     Delta-E=       -0.000081886962 Rises=F Damp=F
 DIIS: error= 1.64D-04 at cycle   7 NSaved=   7.
 NSaved= 7 IEnMin= 7 EnMin= -230.674731377974     IErMin= 7 ErrMin= 1.64D-04
 ErrMax= 1.64D-04  0.00D+00 EMaxC= 1.00D-01 BMatC= 3.55D-05 BMatP= 1.44D-04
 IDIUse=3 WtCom= 9.98D-01 WtEn= 1.64D-03
 Coeff-Com:  0.259D-02-0.365D-02-0.385D-01-0.976D-01-0.104D+00 0.350D+00
 Coeff-Com:  0.890D+00
 Coeff-En:   0.000D+00 0.000D+00 0.000D+00 0.000D+00 0.000D+00 0.000D+00
 Coeff-En:   0.100D+01
 Coeff:      0.259D-02-0.364D-02-0.385D-01-0.974D-01-0.103D+00 0.350D+00
 Coeff:      0.891D+00
 Gap=     0.360 Goal=   None    Shift=    0.000
 Gap=     0.277 Goal=   None    Shift=    0.000
 RMSDP=2.53D-05 MaxDP=5.98D-04 DE=-8.19D-05 OVMax= 5.89D-03

 Cycle   8  Pass 0  IDiag  1:
 E= -230.674752878097     Delta-E=       -0.000021500124 Rises=F Damp=F
 DIIS: error= 5.05D-05 at cycle   8 NSaved=   8.
 NSaved= 8 IEnMin= 8 EnMin= -230.674752878097     IErMin= 8 ErrMin= 5.05D-05
 ErrMax= 5.05D-05  0.00D+00 EMaxC= 1.00D-01 BMatC= 2.24D-06 BMatP= 3.55D-05
 IDIUse=1 WtCom= 1.00D+00 WtEn= 0.00D+00
 Coeff-Com: -0.182D-02 0.419D-02 0.236D-01 0.367D-01-0.483D-02-0.188D+00
 Coeff-Com: -0.251D+00 0.138D+01
 Coeff:     -0.182D-02 0.419D-02 0.236D-01 0.367D-01-0.483D-02-0.188D+00
 Coeff:     -0.251D+00 0.138D+01
 Gap=     0.360 Goal=   None    Shift=    0.000
 Gap=     0.277 Goal=   None    Shift=    0.000
 RMSDP=1.05D-05 MaxDP=2.55D-04 DE=-2.15D-05 OVMax= 2.99D-03

 Cycle   9  Pass 0  IDiag  1:
 E= -230.674756429366     Delta-E=       -0.000003551269 Rises=F Damp=F
 DIIS: error= 2.64D-05 at cycle   9 NSaved=   9.
 NSaved= 9 IEnMin= 9 EnMin= -230.674756429366     IErMin= 9 ErrMin= 2.64D-05
 ErrMax= 2.64D-05  0.00D+00 EMaxC= 1.00D-01 BMatC= 5.82D-07 BMatP= 2.24D-06
 IDIUse=1 WtCom= 1.00D+00 WtEn= 0.00D+00
 Coeff-Com: -0.525D-03 0.918D-03 0.975D-02 0.178D-01 0.134D-01-0.784D-01
 Coeff-Com: -0.180D+00 0.244D+00 0.973D+00
 Coeff:     -0.525D-03 0.918D-03 0.975D-02 0.178D-01 0.134D-01-0.784D-01
 Coeff:     -0.180D+00 0.244D+00 0.973D+00
 Gap=     0.360 Goal=   None    Shift=    0.000
 Gap=     0.277 Goal=   None    Shift=    0.000
 RMSDP=4.63D-06 MaxDP=1.36D-04 DE=-3.55D-06 OVMax= 1.25D-03

 Initial convergence to 1.0D-05 achieved.  Increase integral accuracy.
 Cycle  10  Pass 1  IDiag  1:
 E= -230.674760065884     Delta-E=       -0.000003636518 Rises=F Damp=F
 DIIS: error= 1.56D-05 at cycle   1 NSaved=   1.
 NSaved= 1 IEnMin= 1 EnMin= -230.674760065884     IErMin= 1 ErrMin= 1.56D-05
 ErrMax= 1.56D-05  0.00D+00 EMaxC= 1.00D-01 BMatC= 7.78D-07 BMatP= 7.78D-07
 IDIUse=1 WtCom= 1.00D+00 WtEn= 0.00D+00
 Coeff-Com:  0.100D+01
 Coeff:      0.100D+01
 Gap=     0.360 Goal=   None    Shift=    0.000
 Gap=     0.278 Goal=   None    Shift=    0.000
 RMSDP=4.63D-06 MaxDP=1.36D-04 DE=-3.64D-06 OVMax= 4.17D-04

 Cycle  11  Pass 1  IDiag  1:
 E= -230.674760347927     Delta-E=       -0.000000282042 Rises=F Damp=F
 DIIS: error= 1.05D-05 at cycle   2 NSaved=   2.
 NSaved= 2 IEnMin= 2 EnMin= -230.674760347927     IErMin= 2 ErrMin= 1.05D-05
 ErrMax= 1.05D-05  0.00D+00 EMaxC= 1.00D-01 BMatC= 9.66D-08 BMatP= 7.78D-07
 IDIUse=1 WtCom= 1.00D+00 WtEn= 0.00D+00
 Coeff-Com:  0.323D-01 0.968D+00
 Coeff:      0.323D-01 0.968D+00
 Gap=     0.360 Goal=   None    Shift=    0.000
 Gap=     0.278 Goal=   None    Shift=    0.000
 RMSDP=1.30D-06 MaxDP=3.73D-05 DE=-2.82D-07 OVMax= 2.97D-04

 Cycle  12  Pass 1  IDiag  1:
 E= -230.674760437512     Delta-E=       -0.000000089585 Rises=F Damp=F
 DIIS: error= 7.52D-06 at cycle   3 NSaved=   3.
 NSaved= 3 IEnMin= 3 EnMin= -230.674760437512     IErMin= 3 ErrMin= 7.52D-06
 ErrMax= 7.52D-06  0.00D+00 EMaxC= 1.00D-01 BMatC= 5.37D-08 BMatP= 9.66D-08
 IDIUse=1 WtCom= 1.00D+00 WtEn= 0.00D+00
 Coeff-Com: -0.746D-01 0.372D+00 0.703D+00
 Coeff:     -0.746D-01 0.372D+00 0.703D+00
 Gap=     0.360 Goal=   None    Shift=    0.000
 Gap=     0.278 Goal=   None    Shift=    0.000
 RMSDP=7.23D-07 MaxDP=3.07D-05 DE=-8.96D-08 OVMax= 1.75D-04

 Cycle  13  Pass 1  IDiag  1:
 E= -230.674760481221     Delta-E=       -0.000000043709 Rises=F Damp=F
 DIIS: error= 5.62D-06 at cycle   4 NSaved=   4.
 NSaved= 4 IEnMin= 4 EnMin= -230.674760481221     IErMin= 4 ErrMin= 5.62D-06
 ErrMax= 5.62D-06  0.00D+00 EMaxC= 1.00D-01 BMatC= 1.51D-08 BMatP= 5.37D-08
 IDIUse=1 WtCom= 1.00D+00 WtEn= 0.00D+00
 Coeff-Com:  0.352D-01-0.647D+00-0.511D+00 0.212D+01
 Coeff:      0.352D-01-0.647D+00-0.511D+00 0.212D+01
 Gap=     0.360 Goal=   None    Shift=    0.000
 Gap=     0.278 Goal=   None    Shift=    0.000
 RMSDP=1.61D-06 MaxDP=6.35D-05 DE=-4.37D-08 OVMax= 4.28D-04

 Cycle  14  Pass 1  IDiag  1:
 E= -230.674760529656     Delta-E=       -0.000000048435 Rises=F Damp=F
 DIIS: error= 1.58D-06 at cycle   5 NSaved=   5.
 NSaved= 5 IEnMin= 5 EnMin= -230.674760529656     IErMin= 5 ErrMin= 1.58D-06
 ErrMax= 1.58D-06  0.00D+00 EMaxC= 1.00D-01 BMatC= 3.98D-09 BMatP= 1.51D-08
 IDIUse=1 WtCom= 1.00D+00 WtEn= 0.00D+00
 Coeff-Com:  0.298D-01-0.376D+00-0.358D+00 0.103D+01 0.670D+00
 Coeff:      0.298D-01-0.376D+00-0.358D+00 0.103D+01 0.670D+00
 Gap=     0.360 Goal=   None    Shift=    0.000
 Gap=     0.278 Goal=   None    Shift=    0.000
 RMSDP=3.70D-07 MaxDP=1.81D-05 DE=-4.84D-08 OVMax= 9.06D-05

 Cycle  15  Pass 1  IDiag  1:
 E= -230.674760533150     Delta-E=       -0.000000003494 Rises=F Damp=F
 DIIS: error= 7.93D-07 at cycle   6 NSaved=   6.
 NSaved= 6 IEnMin= 6 EnMin= -230.674760533150     IErMin= 6 ErrMin= 7.93D-07
 ErrMax= 7.93D-07  0.00D+00 EMaxC= 1.00D-01 BMatC= 1.01D-09 BMatP= 3.98D-09
 IDIUse=1 WtCom= 1.00D+00 WtEn= 0.00D+00
 Coeff-Com:  0.405D-02 0.150D-01-0.119D-01-0.166D+00 0.363D+00 0.795D+00
 Coeff:      0.405D-02 0.150D-01-0.119D-01-0.166D+00 0.363D+00 0.795D+00
 Gap=     0.360 Goal=   None    Shift=    0.000
 Gap=     0.278 Goal=   None    Shift=    0.000
 RMSDP=1.70D-07 MaxDP=6.70D-06 DE=-3.49D-09 OVMax= 4.46D-05

 Cycle  16  Pass 1  IDiag  1:
 E= -230.674760533764     Delta-E=       -0.000000000614 Rises=F Damp=F
 DIIS: error= 2.42D-07 at cycle   7 NSaved=   7.
 NSaved= 7 IEnMin= 7 EnMin= -230.674760533764     IErMin= 7 ErrMin= 2.42D-07
 ErrMax= 2.42D-07  0.00D+00 EMaxC= 1.00D-01 BMatC= 5.98D-11 BMatP= 1.01D-09
 IDIUse=1 WtCom= 1.00D+00 WtEn= 0.00D+00
 Coeff-Com: -0.301D-02 0.543D-01 0.462D-01-0.187D+00 0.265D-01 0.201D+00
 Coeff-Com:  0.862D+00
 Coeff:     -0.301D-02 0.543D-01 0.462D-01-0.187D+00 0.265D-01 0.201D+00
 Coeff:      0.862D+00
 Gap=     0.360 Goal=   None    Shift=    0.000
 Gap=     0.278 Goal=   None    Shift=    0.000
 RMSDP=3.83D-08 MaxDP=1.73D-06 DE=-6.14D-10 OVMax= 9.04D-06

 Cycle  17  Pass 1  IDiag  1:
 E= -230.674760533806     Delta-E=       -0.000000000041 Rises=F Damp=F
 DIIS: error= 1.36D-07 at cycle   8 NSaved=   8.
 NSaved= 8 IEnMin= 8 EnMin= -230.674760533806     IErMin= 8 ErrMin= 1.36D-07
 ErrMax= 1.36D-07  0.00D+00 EMaxC= 1.00D-01 BMatC= 1.45D-11 BMatP= 5.98D-11
 IDIUse=1 WtCom= 1.00D+00 WtEn= 0.00D+00
 Coeff-Com: -0.129D-02 0.140D-01 0.146D-01-0.335D-01-0.413D-01-0.576D-01
 Coeff-Com:  0.319D+00 0.787D+00
 Coeff:     -0.129D-02 0.140D-01 0.146D-01-0.335D-01-0.413D-01-0.576D-01
 Coeff:      0.319D+00 0.787D+00
 Gap=     0.360 Goal=   None    Shift=    0.000
 Gap=     0.278 Goal=   None    Shift=    0.000
 RMSDP=1.21D-08 MaxDP=6.64D-07 DE=-4.15D-11 OVMax= 2.55D-06

 Cycle  18  Pass 1  IDiag  1:
 E= -230.674760533809     Delta-E=       -0.000000000003 Rises=F Damp=F
 DIIS: error= 5.28D-08 at cycle   9 NSaved=   9.
 NSaved= 9 IEnMin= 9 EnMin= -230.674760533809     IErMin= 9 ErrMin= 5.28D-08
 ErrMax= 5.28D-08  0.00D+00 EMaxC= 1.00D-01 BMatC= 2.72D-12 BMatP= 1.45D-11
 IDIUse=1 WtCom= 1.00D+00 WtEn= 0.00D+00
 Coeff-Com: -0.688D-04-0.426D-02-0.192D-02 0.219D-01-0.225D-01-0.703D-01
 Coeff-Com: -0.400D-01 0.329D+00 0.788D+00
 Coeff:     -0.688D-04-0.426D-02-0.192D-02 0.219D-01-0.225D-01-0.703D-01
 Coeff:     -0.400D-01 0.329D+00 0.788D+00
 Gap=     0.360 Goal=   None    Shift=    0.000
 Gap=     0.278 Goal=   None    Shift=    0.000
 RMSDP=4.59D-09 MaxDP=1.32D-07 DE=-3.35D-12 OVMax= 5.72D-07

 SCF Done:  E(UM062X) =  -230.674760534     A.U. after   18 cycles
            NFock= 18  Conv=0.46D-08     -V/T= 2.0052
 <Sx>= 0.0000 <Sy>= 0.0000 <Sz>= 0.5000 <S**2>= 0.7597 S= 0.5049
 <L.S>= 0.000000000000E+00
 KE= 2.294881005840D+02 PE=-8.028618599010D+02 EE= 2.119093347560D+02
 Annihilation of the first spin contaminant:
 S**2 before annihilation     0.7597,   after     0.7500
 Leave Link  502 at Thu May 23 12:17:07 2019, MaxMem=   671088640 cpu:             407.6 elap:              37.1
 (Enter /shared/centos7/gaussian/g16/l801.exe)
 DoSCS=F DFT=T ScalE2(SS,OS)=  1.000000  1.000000
 Range of M.O.s used for correlation:     1   218
 NBasis=   218 NAE=    18 NBE=    17 NFC=     0 NFV=     0
 NROrb=    218 NOA=    18 NOB=    17 NVA=   200 NVB=   201

 **** Warning!!: The largest alpha MO coefficient is  0.11938500D+02


 **** Warning!!: The largest beta MO coefficient is  0.11928385D+02

 Leave Link  801 at Thu May 23 12:17:08 2019, MaxMem=   671088640 cpu:               0.4 elap:               0.0
 (Enter /shared/centos7/gaussian/g16/l1101.exe)
 Using compressed storage, NAtomX=    11.
 Will process     12 centers per pass.
 Leave Link 1101 at Thu May 23 12:17:08 2019, MaxMem=   671088640 cpu:               5.8 elap:               0.3
 (Enter /shared/centos7/gaussian/g16/l1102.exe)
 Symmetrizing basis deriv contribution to polar:
 IMax=3 JMax=2 DiffMx= 0.00D+00
 Leave Link 1102 at Thu May 23 12:17:08 2019, MaxMem=   671088640 cpu:               0.5 elap:               0.1
 (Enter /shared/centos7/gaussian/g16/l1110.exe)
 Forming Gx(P) for the SCF density, NAtomX=    11.
 Integral derivatives from FoFJK, PRISM(SPDF).
 Do as many integral derivatives as possible in FoFJK.
 G2DrvN: MDV=     671087712.
 G2DrvN: will do    12 centers at a time, making    1 passes.
 Calling FoFCou, ICntrl=  3107 FMM=F I1Cent=   0 AccDes= 0.00D+00.
 FoFJK:  IHMeth= 1 ICntrl=    3107 DoSepK=F KAlg= 0 I1Cent=           0 FoldK=F
 IRaf=         0 NMat=       1 IRICut=       1 DoRegI=T DoRafI=F ISym2E= 0 IDoP0=0 IntGTp=1.
 FoFCou: FMM=F IPFlag=           0 FMFlag=      100000 FMFlg1=           0
         NFxFlg=           0 DoJE=F BraDBF=F KetDBF=F FulRan=T
         wScrn=  0.000000 ICntrl=      3107 IOpCl=  1 I1Cent=           0 NGrid=           0
         NMat0=    1 NMatS0=      1 NMatT0=    0 NMatD0=    1 NMtDS0=    0 NMtDT0=    0
 Symmetry not used in FoFCou.
 End of G2Drv F.D. properties file   721 does not exist.
 End of G2Drv F.D. properties file   722 does not exist.
 End of G2Drv F.D. properties file   788 does not exist.
 Leave Link 1110 at Thu May 23 12:17:56 2019, MaxMem=   671088640 cpu:             956.0 elap:              47.8
 (Enter /shared/centos7/gaussian/g16/l1002.exe)
 Minotr:  UHF open shell wavefunction.
          IDoAtm=11111111111
          Direct CPHF calculation.
          Differentiating once with respect to nuclear coordinates.
          Requested convergence is 1.0D-08 RMS, and 1.0D-07 maximum.
          Secondary convergence is 1.0D-12 RMS, and 1.0D-12 maximum.
          NewPWx=T KeepS1=F KeepF1=F KeepIn=T MapXYZ=F SortEE=F KeepMc=T.
         3279 words used for storage of precomputed grid.
 Keep R1 and R2 ints in memory in canonical form, NReq=591298472.
 FoFCou: FMM=F IPFlag=           0 FMFlag=           0 FMFlg1=           0
         NFxFlg=           0 DoJE=F BraDBF=F KetDBF=F FulRan=T
         wScrn=  0.000000 ICntrl=       600 IOpCl=  0 I1Cent=           0 NGrid=           0
         NMat0=    1 NMatS0=  23871 NMatT0=    0 NMatD0=    1 NMtDS0=    0 NMtDT0=    0
 Symmetry not used in FoFCou.
 Two-electron integral symmetry not used.
          MDV=     671088640 using IRadAn=       1.
          Solving linear equations simultaneously, MaxMat=       0.
          There are    36 degrees of freedom in the 1st order CPHF.  IDoFFX=6 NUNeed=     0.
     30 vectors produced by pass  0 Test12= 1.95D-14 2.78D-09 XBig12= 1.29D-01 1.34D-01.
 AX will form    30 AO Fock derivatives at one time.
     30 vectors produced by pass  1 Test12= 1.95D-14 2.78D-09 XBig12= 1.26D-02 2.67D-02.
     30 vectors produced by pass  2 Test12= 1.95D-14 2.78D-09 XBig12= 8.16D-04 4.93D-03.
     30 vectors produced by pass  3 Test12= 1.95D-14 2.78D-09 XBig12= 2.02D-05 6.51D-04.
     30 vectors produced by pass  4 Test12= 1.95D-14 2.78D-09 XBig12= 2.62D-07 1.04D-04.
     30 vectors produced by pass  5 Test12= 1.95D-14 2.78D-09 XBig12= 3.04D-09 1.31D-05.
     30 vectors produced by pass  6 Test12= 1.95D-14 2.78D-09 XBig12= 2.79D-11 6.70D-07.
     13 vectors produced by pass  7 Test12= 1.95D-14 2.78D-09 XBig12= 2.19D-13 5.15D-08.
      2 vectors produced by pass  8 Test12= 1.95D-14 2.78D-09 XBig12= 1.39D-15 3.63D-09.
 InvSVY:  IOpt=1 It=  1 EMax= 1.67D-15
 Solved reduced A of dimension   225 with    30 vectors.
 End of Minotr F.D. properties file   721 does not exist.
 End of Minotr F.D. properties file   722 does not exist.
 End of Minotr F.D. properties file   788 does not exist.
 Leave Link 1002 at Thu May 23 12:18:54 2019, MaxMem=   671088640 cpu:            1167.5 elap:              58.5
 (Enter /shared/centos7/gaussian/g16/l601.exe)
 Copying SCF densities to generalized density rwf, IOpCl= 1 IROHF=0.

 **********************************************************************

            Population analysis using the SCF density.

 **********************************************************************

 Orbital symmetries:
 Alpha Orbitals:
       Occupied  (A) (A) (A) (A) (A) (A) (A) (A) (A) (A) (A) (A)
                 (A) (A) (A) (A) (A) (A)
       Virtual   (A) (A) (A) (A) (A) (A) (A) (A) (A) (A) (A) (A)
                 (A) (A) (A) (A) (A) (A) (A) (A) (A) (A) (A) (A)
                 (A) (A) (A) (A) (A) (A) (A) (A) (A) (A) (A) (A)
                 (A) (A) (A) (A) (A) (A) (A) (A) (A) (A) (A) (A)
                 (A) (A) (A) (A) (A) (A) (A) (A) (A) (A) (A) (A)
                 (A) (A) (A) (A) (A) (A) (A) (A) (A) (A) (A) (A)
                 (A) (A) (A) (A) (A) (A) (A) (A) (A) (A) (A) (A)
                 (A) (A) (A) (A) (A) (A) (A) (A) (A) (A) (A) (A)
                 (A) (A) (A) (A) (A) (A) (A) (A) (A) (A) (A) (A)
                 (A) (A) (A) (A) (A) (A) (A) (A) (A) (A) (A) (A)
                 (A) (A) (A) (A) (A) (A) (A) (A) (A) (A) (A) (A)
                 (A) (A) (A) (A) (A) (A) (A) (A) (A) (A) (A) (A)
                 (A) (A) (A) (A) (A) (A) (A) (A) (A) (A) (A) (A)
                 (A) (A) (A) (A) (A) (A) (A) (A) (A) (A) (A) (A)
                 (A) (A) (A) (A) (A) (A) (A) (A) (A) (A) (A) (A)
                 (A) (A) (A) (A) (A) (A) (A) (A) (A) (A) (A) (A)
                 (A) (A) (A) (A) (A) (A) (A) (A)
 Beta  Orbitals:
       Occupied  (A) (A) (A) (A) (A) (A) (A) (A) (A) (A) (A) (A)
                 (A) (A) (A) (A) (A)
       Virtual   (A) (A) (A) (A) (A) (A) (A) (A) (A) (A) (A) (A)
                 (A) (A) (A) (A) (A) (A) (A) (A) (A) (A) (A) (A)
                 (A) (A) (A) (A) (A) (A) (A) (A) (A) (A) (A) (A)
                 (A) (A) (A) (A) (A) (A) (A) (A) (A) (A) (A) (A)
                 (A) (A) (A) (A) (A) (A) (A) (A) (A) (A) (A) (A)
                 (A) (A) (A) (A) (A) (A) (A) (A) (A) (A) (A) (A)
                 (A) (A) (A) (A) (A) (A) (A) (A) (A) (A) (A) (A)
                 (A) (A) (A) (A) (A) (A) (A) (A) (A) (A) (A) (A)
                 (A) (A) (A) (A) (A) (A) (A) (A) (A) (A) (A) (A)
                 (A) (A) (A) (A) (A) (A) (A) (A) (A) (A) (A) (A)
                 (A) (A) (A) (A) (A) (A) (A) (A) (A) (A) (A) (A)
                 (A) (A) (A) (A) (A) (A) (A) (A) (A) (A) (A) (A)
                 (A) (A) (A) (A) (A) (A) (A) (A) (A) (A) (A) (A)
                 (A) (A) (A) (A) (A) (A) (A) (A) (A) (A) (A) (A)
                 (A) (A) (A) (A) (A) (A) (A) (A) (A) (A) (A) (A)
                 (A) (A) (A) (A) (A) (A) (A) (A) (A) (A) (A) (A)
                 (A) (A) (A) (A) (A) (A) (A) (A) (A)
 The electronic state is 2-A.
 Alpha  occ. eigenvalues --  -19.68965 -19.68688 -10.55267 -10.52996  -1.27071
 Alpha  occ. eigenvalues --   -0.98966  -0.86856  -0.71412  -0.61498  -0.59705
 Alpha  occ. eigenvalues --   -0.53124  -0.52043  -0.48307  -0.45269  -0.42232
 Alpha  occ. eigenvalues --   -0.40300  -0.37482  -0.29773
 Alpha virt. eigenvalues --    0.06210   0.08530   0.11107   0.13148   0.13496
 Alpha virt. eigenvalues --    0.15239   0.17470   0.21724   0.26095   0.28545
 Alpha virt. eigenvalues --    0.29670   0.30154   0.31984   0.36689   0.44032
 Alpha virt. eigenvalues --    0.46518   0.46753   0.48528   0.49583   0.51341
 Alpha virt. eigenvalues --    0.51939   0.52578   0.54544   0.56316   0.59876
 Alpha virt. eigenvalues --    0.63172   0.64704   0.67542   0.68964   0.71008
 Alpha virt. eigenvalues --    0.73348   0.76578   0.80750   0.85491   0.86414
 Alpha virt. eigenvalues --    0.90041   0.92679   0.96412   0.97546   1.02366
 Alpha virt. eigenvalues --    1.07178   1.07725   1.09460   1.10282   1.12418
 Alpha virt. eigenvalues --    1.14652   1.17124   1.18662   1.21650   1.25178
 Alpha virt. eigenvalues --    1.28361   1.30720   1.32700   1.35594   1.36866
 Alpha virt. eigenvalues --    1.42508   1.43873   1.46912   1.48592   1.52943
 Alpha virt. eigenvalues --    1.56458   1.57471   1.62078   1.67542   1.73983
 Alpha virt. eigenvalues --    1.77110   1.91615   1.92938   2.04942   2.10905
 Alpha virt. eigenvalues --    2.17539   2.19544   2.23974   2.26775   2.31249
 Alpha virt. eigenvalues --    2.34853   2.39534   2.43015   2.43795   2.52340
 Alpha virt. eigenvalues --    2.56149   2.57277   2.62221   2.65270   2.74294
 Alpha virt. eigenvalues --    2.75525   2.77855   2.84428   2.87731   2.89202
 Alpha virt. eigenvalues --    2.91495   2.94168   2.96800   3.00257   3.05517
 Alpha virt. eigenvalues --    3.06833   3.08678   3.09797   3.13490   3.15202
 Alpha virt. eigenvalues --    3.21290   3.23621   3.25409   3.25580   3.31335
 Alpha virt. eigenvalues --    3.32199   3.36178   3.39052   3.40444   3.42809
 Alpha virt. eigenvalues --    3.44116   3.46071   3.50467   3.50568   3.51859
 Alpha virt. eigenvalues --    3.56941   3.62109   3.67322   3.68633   3.71729
 Alpha virt. eigenvalues --    3.73581   3.76957   3.77311   3.79608   3.80316
 Alpha virt. eigenvalues --    3.81696   3.87470   3.89856   3.93848   3.94965
 Alpha virt. eigenvalues --    3.96226   3.98443   4.02467   4.04272   4.04744
 Alpha virt. eigenvalues --    4.07439   4.09095   4.10744   4.14432   4.19217
 Alpha virt. eigenvalues --    4.20843   4.25549   4.26419   4.29659   4.38979
 Alpha virt. eigenvalues --    4.41463   4.45730   4.48736   4.49860   4.60742
 Alpha virt. eigenvalues --    4.70157   4.76561   4.77076   4.78796   4.80407
 Alpha virt. eigenvalues --    4.86700   4.88520   4.90672   4.99418   5.03990
 Alpha virt. eigenvalues --    5.06992   5.09347   5.14455   5.16707   5.18154
 Alpha virt. eigenvalues --    5.20644   5.23162   5.29703   5.30161   5.35843
 Alpha virt. eigenvalues --    5.42197   5.43440   5.53012   5.57863   5.73634
 Alpha virt. eigenvalues --    5.79342   5.81715   5.85940   5.95616   6.03675
 Alpha virt. eigenvalues --    6.11670   6.32071   6.36017   6.38287   6.48029
 Alpha virt. eigenvalues --    6.55397   6.58852   6.61802   6.70137   6.72621
 Alpha virt. eigenvalues --    6.85655   6.90605   7.14501   7.19233   7.43854
 Alpha virt. eigenvalues --    7.61615   9.85578  11.23528  12.44336  13.46027
  Beta  occ. eigenvalues --  -19.68823 -19.67686 -10.54764 -10.53021  -1.25364
  Beta  occ. eigenvalues --   -0.96455  -0.85491  -0.69865  -0.60478  -0.55798
  Beta  occ. eigenvalues --   -0.52241  -0.50155  -0.46510  -0.44505  -0.41855
  Beta  occ. eigenvalues --   -0.36910  -0.35389
  Beta virt. eigenvalues --   -0.07630   0.06321   0.08454   0.11100   0.13238
  Beta virt. eigenvalues --    0.13952   0.15391   0.17546   0.22177   0.26762
  Beta virt. eigenvalues --    0.28565   0.29659   0.30198   0.32424   0.37098
  Beta virt. eigenvalues --    0.44129   0.47110   0.47350   0.49699   0.50084
  Beta virt. eigenvalues --    0.52438   0.52527   0.53488   0.55034   0.56754
  Beta virt. eigenvalues --    0.60415   0.63528   0.64823   0.67850   0.69233
  Beta virt. eigenvalues --    0.71404   0.73576   0.76692   0.80792   0.85644
  Beta virt. eigenvalues --    0.86569   0.90120   0.92914   0.96484   0.97714
  Beta virt. eigenvalues --    1.02960   1.07284   1.08009   1.09593   1.10682
  Beta virt. eigenvalues --    1.12808   1.14693   1.17733   1.19195   1.21735
  Beta virt. eigenvalues --    1.25437   1.28755   1.31161   1.33020   1.35794
  Beta virt. eigenvalues --    1.37443   1.42799   1.43962   1.47394   1.48923
  Beta virt. eigenvalues --    1.53153   1.57437   1.57818   1.62574   1.68422
  Beta virt. eigenvalues --    1.75746   1.77544   1.92316   1.93710   2.05112
  Beta virt. eigenvalues --    2.12168   2.17697   2.19860   2.24818   2.27488
  Beta virt. eigenvalues --    2.31692   2.35441   2.40518   2.43534   2.44161
  Beta virt. eigenvalues --    2.53589   2.56889   2.58038   2.62994   2.66000
  Beta virt. eigenvalues --    2.75532   2.76182   2.78848   2.85366   2.88387
  Beta virt. eigenvalues --    2.90126   2.92032   2.96036   2.98887   3.00888
  Beta virt. eigenvalues --    3.06481   3.08187   3.09376   3.10661   3.14770
  Beta virt. eigenvalues --    3.17564   3.22394   3.24033   3.25750   3.27205
  Beta virt. eigenvalues --    3.31333   3.32601   3.36179   3.39849   3.40789
  Beta virt. eigenvalues --    3.42957   3.44829   3.46781   3.50802   3.51501
  Beta virt. eigenvalues --    3.52056   3.57189   3.62989   3.67638   3.68766
  Beta virt. eigenvalues --    3.72226   3.73718   3.77538   3.77854   3.79810
  Beta virt. eigenvalues --    3.80427   3.82052   3.87572   3.90170   3.94016
  Beta virt. eigenvalues --    3.95524   3.96570   3.98866   4.02987   4.04461
  Beta virt. eigenvalues --    4.04966   4.07704   4.09856   4.11347   4.14841
  Beta virt. eigenvalues --    4.19802   4.20855   4.25764   4.27214   4.30521
  Beta virt. eigenvalues --    4.39676   4.42033   4.46467   4.49647   4.51305
  Beta virt. eigenvalues --    4.61480   4.71073   4.77174   4.78832   4.79213
  Beta virt. eigenvalues --    4.80811   4.87521   4.89216   4.92127   5.00049
  Beta virt. eigenvalues --    5.05063   5.08234   5.10141   5.15054   5.17463
  Beta virt. eigenvalues --    5.19211   5.21952   5.24009   5.29930   5.30332
  Beta virt. eigenvalues --    5.37588   5.44407   5.45559   5.55242   5.59969
  Beta virt. eigenvalues --    5.76675   5.79323   5.82592   5.87465   5.95946
  Beta virt. eigenvalues --    6.05147   6.12685   6.32669   6.36635   6.38398
  Beta virt. eigenvalues --    6.48709   6.57340   6.60941   6.62349   6.70756
  Beta virt. eigenvalues --    6.74809   6.86010   6.92591   7.14503   7.20095
  Beta virt. eigenvalues --    7.44319   7.61756   9.86541  11.23697  12.45399
  Beta virt. eigenvalues --   13.46244
          Condensed to atoms (all electrons):
               1          2          3          4          5          6
     1  O    7.902718   0.052952   0.008219  -0.019727  -0.033434   0.005490
     2  O    0.052952   8.100712  -0.096493   0.016196   0.180865  -0.001015
     3  C    0.008219  -0.096493   5.255560   0.282044   0.260050   0.385521
     4  C   -0.019727   0.016196   0.282044   4.949358  -0.023698  -0.041398
     5  H   -0.033434   0.180865   0.260050  -0.023698   0.412148  -0.018434
     6  H    0.005490  -0.001015   0.385521  -0.041398  -0.018434   0.560305
     7  H    0.001382   0.000419   0.384772  -0.033081  -0.009955  -0.028442
     8  H   -0.000407   0.000588  -0.037858   0.391699   0.003391  -0.002844
     9  H    0.018917  -0.007547  -0.037265   0.399219  -0.002679  -0.005053
    10  H   -0.000340   0.002131  -0.037355   0.401363  -0.003562   0.006488
    11  H    0.308916  -0.029920  -0.003265   0.001644  -0.001836   0.001320
               7          8          9         10         11
     1  O    0.001382  -0.000407   0.018917  -0.000340   0.308916
     2  O    0.000419   0.000588  -0.007547   0.002131  -0.029920
     3  C    0.384772  -0.037858  -0.037265  -0.037355  -0.003265
     4  C   -0.033081   0.391699   0.399219   0.401363   0.001644
     5  H   -0.009955   0.003391  -0.002679  -0.003562  -0.001836
     6  H   -0.028442  -0.002844  -0.005053   0.006488   0.001320
     7  H    0.558129  -0.004011   0.006644  -0.004841  -0.000040
     8  H   -0.004011   0.604940  -0.036232  -0.032973   0.000019
     9  H    0.006644  -0.036232   0.556630  -0.031380  -0.001160
    10  H   -0.004841  -0.032973  -0.031380   0.578280   0.000034
    11  H   -0.000040   0.000019  -0.001160   0.000034   0.453141
          Atomic-Atomic Spin Densities.
               1          2          3          4          5          6
     1  O    0.063788  -0.044648   0.019581  -0.003338   0.010617  -0.002491
     2  O   -0.044648   0.590049  -0.106801   0.012259  -0.044384   0.004191
     3  C    0.019581  -0.106801   0.709144  -0.045309   0.068063  -0.005316
     4  C   -0.003338   0.012259  -0.045309  -0.023612  -0.003424   0.004521
     5  H    0.010617  -0.044384   0.068063  -0.003424  -0.057475   0.001672
     6  H   -0.002491   0.004191  -0.005316   0.004521   0.001672  -0.033109
     7  H   -0.000291   0.002009  -0.001799   0.003519   0.001153   0.003559
     8  H    0.000410  -0.001046  -0.014942   0.010053   0.000591  -0.001480
     9  H   -0.001583   0.002173  -0.005181   0.005385  -0.000177   0.000546
    10  H   -0.000223   0.001227  -0.005035   0.004225  -0.000338  -0.000020
    11  H    0.000566  -0.001381  -0.000096  -0.000055   0.000319  -0.000139
               7          8          9         10         11
     1  O   -0.000291   0.000410  -0.001583  -0.000223   0.000566
     2  O    0.002009  -0.001046   0.002173   0.001227  -0.001381
     3  C   -0.001799  -0.014942  -0.005181  -0.005035  -0.000096
     4  C    0.003519   0.010053   0.005385   0.004225  -0.000055
     5  H    0.001153   0.000591  -0.000177  -0.000338   0.000319
     6  H    0.003559  -0.001480   0.000546  -0.000020  -0.000139
     7  H   -0.034869  -0.001157  -0.000091   0.000634  -0.000005
     8  H   -0.001157   0.050760  -0.003809  -0.003916   0.000002
     9  H   -0.000091  -0.003809   0.009072   0.001036  -0.000007
    10  H    0.000634  -0.003916   0.001036   0.007595  -0.000005
    11  H   -0.000005   0.000002  -0.000007  -0.000005  -0.000991
 Mulliken charges and spin densities:
               1          2
     1  O   -0.244685   0.042387
     2  O   -0.218888   0.413650
     3  C   -0.363931   0.612308
     4  C   -0.323622  -0.035775
     5  H    0.237143  -0.023383
     6  H    0.138061  -0.028066
     7  H    0.129023  -0.027339
     8  H    0.113688   0.035466
     9  H    0.139908   0.007363
    10  H    0.122155   0.005179
    11  H    0.271148  -0.001791
 Sum of Mulliken charges =  -0.00000   1.00000
 Mulliken charges and spin densities with hydrogens summed into heavy atoms:
               1          2
     1  O    0.026463   0.040596
     2  O    0.018254   0.390267
     3  C   -0.096847   0.556904
     4  C    0.052129   0.012233
 APT charges:
               1
     1  O   -0.577222
     2  O   -0.176455
     3  C   -0.715200
     4  C   -0.975447
     5  H    0.169717
     6  H    0.284487
     7  H    0.414821
     8  H    0.435160
     9  H    0.216967
    10  H    0.330402
    11  H    0.592771
 Sum of APT charges =  -0.00000
 APT charges with hydrogens summed into heavy atoms:
               1
     1  O    0.015549
     2  O   -0.006738
     3  C   -0.015892
     4  C    0.007082
 Electronic spatial extent (au):  <R**2>=            388.0612
 Charge=             -0.0000 electrons
 Dipole moment (field-independent basis, Debye):
    X=             -0.5845    Y=              0.7102    Z=              1.6322  Tot=              1.8735
 Quadrupole moment (field-independent basis, Debye-Ang):
   XX=            -23.1028   YY=            -26.8034   ZZ=            -25.2686
   XY=              0.2886   XZ=              3.7023   YZ=              0.4239
 Traceless Quadrupole moment (field-independent basis, Debye-Ang):
   XX=              1.9555   YY=             -1.7452   ZZ=             -0.2104
   XY=              0.2886   XZ=              3.7023   YZ=              0.4239
 Octapole moment (field-independent basis, Debye-Ang**2):
  XXX=             20.0748  YYY=              0.4539  ZZZ=              1.7402  XYY=              1.4361
  XXY=              0.9600  XXZ=              7.3880  XZZ=              5.9994  YZZ=             -0.0430
  YYZ=             -0.3939  XYZ=              1.1011
 Hexadecapole moment (field-independent basis, Debye-Ang**3):
 XXXX=           -299.6937 YYYY=            -98.0660 ZZZZ=            -60.6269 XXXY=              1.1324
 XXXZ=             16.9685 YYYX=             -3.8651 YYYZ=             -3.0942 ZZZX=              6.5979
 ZZZY=             -1.4273 XXYY=            -72.8370 XXZZ=            -59.0023 YYZZ=            -27.4910
 XXYZ=             -0.9825 YYXZ=              0.9423 ZZXY=             -0.4751
 N-N= 1.307896640272D+02 E-N=-8.028618624729D+02  KE= 2.294881005840D+02
  Exact polarizability:   0.000   0.000   0.000   0.000   0.000   0.000
 Approx polarizability:  59.715  -4.281  43.427  -2.440  -2.176  43.260
                          Isotropic Fermi Contact Couplings
        Atom                 a.u.       MegaHertz       Gauss      10(-4) cm-1
     1  O(17)              0.00240      -1.45457      -0.51903      -0.48519
     2  O(17)              0.10812     -65.54454     -23.38792     -21.86331
     3  C(13)              0.16243     182.60391      65.15761      60.91011
     4  C(13)             -0.01482     -16.65530      -5.94302      -5.55561
     5  H(1)              -0.02855    -127.62200     -45.53870     -42.57012
     6  H(1)              -0.00561     -25.05545      -8.94041      -8.35760
     7  H(1)              -0.00452     -20.21651      -7.21375      -6.74350
     8  H(1)               0.01852      82.77402      29.53583      27.61044
     9  H(1)               0.00394      17.61879       6.28682       5.87700
    10  H(1)               0.00259      11.56171       4.12551       3.85657
    11  H(1)              -0.00078      -3.50131      -1.24936      -1.16791
 --------------------------------------------------------
       Center         ----  Spin Dipole Couplings  ----
                      3XX-RR        3YY-RR        3ZZ-RR
 --------------------------------------------------------
     1   Atom        0.219270     -0.127656     -0.091614
     2   Atom        1.176714     -0.875760     -0.300954
     3   Atom        0.442325     -0.329726     -0.112600
     4   Atom        0.016859     -0.003794     -0.013065
     5   Atom        0.179007     -0.106538     -0.072469
     6   Atom       -0.001630     -0.043898      0.045528
     7   Atom        0.004653      0.021051     -0.025704
     8   Atom        0.004767      0.000924     -0.005692
     9   Atom       -0.004072      0.012149     -0.008077
    10   Atom       -0.000007     -0.002141      0.002148
    11   Atom        0.003589     -0.009860      0.006271
 --------------------------------------------------------
                        XY            XZ            YZ
 --------------------------------------------------------
     1   Atom       -0.142914     -0.176917      0.115064
     2   Atom       -0.541500     -1.255595      0.296985
     3   Atom        0.099367     -0.422242     -0.056598
     4   Atom        0.016017     -0.006345      0.000347
     5   Atom       -0.046945     -0.120792      0.013707
     6   Atom        0.001362      0.011980     -0.002423
     7   Atom       -0.031755     -0.003161     -0.026718
     8   Atom        0.008486     -0.002991      0.000788
     9   Atom        0.002457     -0.001373      0.000701
    10   Atom        0.004864      0.005851      0.007608
    11   Atom       -0.002268      0.015034      0.002156
 --------------------------------------------------------


 ---------------------------------------------------------------------------------
              Anisotropic Spin Dipole Couplings in Principal Axis System
 ---------------------------------------------------------------------------------

       Atom             a.u.   MegaHertz   Gauss  10(-4) cm-1        Axes

              Baa    -0.2263    16.374     5.843     5.462 -0.0287  0.7411 -0.6708
     1 O(17)  Bbb    -0.1377     9.967     3.556     3.325  0.5362  0.5778  0.6154
              Bcc     0.3640   -26.341    -9.399    -8.786  0.8436 -0.3421 -0.4139
 
              Baa    -1.0253    74.192    26.474    24.748  0.5187  0.4983  0.6947
     2 O(17)  Bbb    -1.0008    72.416    25.840    24.156 -0.0970  0.8416 -0.5313
              Bcc     2.0261  -146.609   -52.314   -48.903  0.8494 -0.2081 -0.4849
 
              Baa    -0.3444   -46.209   -16.489   -15.414  0.1789  0.8298  0.5286
     3 C(13)  Bbb    -0.3387   -45.445   -16.216   -15.159  0.4510 -0.5466  0.7055
              Bcc     0.6830    91.654    32.704    30.573  0.8744  0.1122 -0.4720
 
              Baa    -0.0165    -2.219    -0.792    -0.740  0.3909 -0.5120  0.7649
     4 C(13)  Bbb    -0.0098    -1.315    -0.469    -0.439 -0.2846  0.7231  0.6294
              Bcc     0.0263     3.534     1.261     1.179  0.8753  0.4637 -0.1369
 
              Baa    -0.1234   -65.832   -23.490   -21.959  0.3917  0.4296  0.8137
     5 H(1)   Bbb    -0.1112   -59.325   -21.169   -19.789 -0.0431  0.8919 -0.4501
              Bcc     0.2346   125.156    44.659    41.748  0.9191 -0.1413 -0.3679
 
              Baa    -0.0440   -23.494    -8.383    -7.837 -0.0413  0.9986  0.0325
     6 H(1)   Bbb    -0.0044    -2.352    -0.839    -0.785  0.9718  0.0477 -0.2308
              Bcc     0.0484    25.846     9.223     8.621  0.2321 -0.0221  0.9725
 
              Baa    -0.0444   -23.670    -8.446    -7.895  0.3747  0.5006  0.7804
     7 H(1)   Bbb    -0.0064    -3.435    -1.226    -1.146  0.7569  0.3210 -0.5693
              Bcc     0.0508    27.104     9.671     9.041 -0.5355  0.8039 -0.2586
 
              Baa    -0.0083    -4.451    -1.588    -1.485  0.4912 -0.5100  0.7061
     8 H(1)   Bbb    -0.0034    -1.816    -0.648    -0.606 -0.3750  0.6078  0.6999
              Bcc     0.0117     6.267     2.236     2.091  0.7861  0.6087 -0.1073
 
              Baa    -0.0086    -4.589    -1.638    -1.531  0.3242 -0.0703  0.9434
     9 H(1)   Bbb    -0.0039    -2.094    -0.747    -0.698  0.9349 -0.1285 -0.3308
              Bcc     0.0125     6.683     2.385     2.229  0.1444  0.9892  0.0241
 
              Baa    -0.0079    -4.230    -1.510    -1.411 -0.0808  0.8175 -0.5703
    10 H(1)   Bbb    -0.0046    -2.450    -0.874    -0.817  0.8510 -0.2413 -0.4664
              Bcc     0.0125     6.681     2.384     2.228  0.5189  0.5230  0.6762
 
              Baa    -0.0131    -7.013    -2.502    -2.339  0.5334  0.6898 -0.4896
    11 H(1)   Bbb    -0.0069    -3.671    -1.310    -1.224 -0.5100  0.7240  0.4644
              Bcc     0.0200    10.684     3.812     3.564  0.6748  0.0020  0.7380
 

 ---------------------------------------------------------------------------------

 No NMR shielding tensors so no spin-rotation constants.
 Leave Link  601 at Thu May 23 12:18:55 2019, MaxMem=   671088640 cpu:               7.3 elap:               0.4
 (Enter /shared/centos7/gaussian/g16/l701.exe)
 SCFChk:  SCF convergence  4.59D-09 required  1.00D-08
 ... and contract with generalized density number  0.
 Compute integral second derivatives.
 Entering OneElI...
 Calculate overlap and kinetic energy integrals
    NBasis = 245  MinDer = 2  MaxDer = 2
 Requested accuracy = 0.1000D-12
 PrmmSu-InSpLW:  IPartL=    0 NPrtUS=   20 NPrtUL=    1 DoSpLW=F IThBeg=    0 IThEnd=   19 NThAct=   20.
 PrsmSu:  NPrtUS=  20 ThrOK=T IAlg=1 NPAlg=1 LenDen=           0 ISkipM=0 DoSpLW=F IThBeg=    0 IThEnd=   19.
 Prism:   IPart=     0 DynPar=F LinDyn=F Incr=           1.
 PRISM was handed    33456309 working-precision words and  3403 shell-pairs
 PRISM was handed    33456309 working-precision words and  3403 shell-pairs
 PRISM was handed    33456309 working-precision words and  3403 shell-pairs
 PRISM was handed    33456309 working-precision words and  3403 shell-pairs
 PRISM was handed    33456309 working-precision words and  3403 shell-pairs
 PRISM was handed    33456309 working-precision words and  3403 shell-pairs
 PRISM was handed    33456309 working-precision words and  3403 shell-pairs
 PRISM was handed    33456309 working-precision words and  3403 shell-pairs
 PRISM was handed    33456309 working-precision words and  3403 shell-pairs
 PRISM was handed    33456309 working-precision words and  3403 shell-pairs
 PRISM was handed    33456309 working-precision words and  3403 shell-pairs
 PRISM was handed    33456309 working-precision words and  3403 shell-pairs
 PRISM was handed    33456309 working-precision words and  3403 shell-pairs
 PRISM was handed    33456309 working-precision words and  3403 shell-pairs
 PRISM was handed    33456309 working-precision words and  3403 shell-pairs
 PRISM was handed    33456309 working-precision words and  3403 shell-pairs
 PRISM was handed    33456309 working-precision words and  3403 shell-pairs
 PRISM was handed    33456309 working-precision words and  3403 shell-pairs
 PRISM was handed    33456309 working-precision words and  3403 shell-pairs
 PRISM was handed    33456309 working-precision words and  3403 shell-pairs
 IPart= 16 NShTot=         154 NBatch=          23 AvBLen=         6.7
 IPart= 17 NShTot=         154 NBatch=          23 AvBLen=         6.7
 IPart=  0 NShTot=         204 NBatch=          60 AvBLen=         3.4
 IPart= 18 NShTot=         153 NBatch=          23 AvBLen=         6.7
 IPart= 15 NShTot=         157 NBatch=          26 AvBLen=         6.0
 IPart= 19 NShTot=         151 NBatch=          23 AvBLen=         6.6
 IPart=  5 NShTot=         179 NBatch=          36 AvBLen=         5.0
 IPart=  1 NShTot=         197 NBatch=          53 AvBLen=         3.7
 IPart=  6 NShTot=         177 NBatch=          34 AvBLen=         5.2
 IPart= 11 NShTot=         162 NBatch=          27 AvBLen=         6.0
 IPart=  8 NShTot=         170 NBatch=          32 AvBLen=         5.3
 IPart=  7 NShTot=         176 NBatch=          33 AvBLen=         5.3
 IPart=  4 NShTot=         180 NBatch=          37 AvBLen=         4.9
 IPart=  9 NShTot=         166 NBatch=          29 AvBLen=         5.7
 IPart=  2 NShTot=         192 NBatch=          48 AvBLen=         4.0
 IPart= 10 NShTot=         164 NBatch=          28 AvBLen=         5.9
 IPart= 13 NShTot=         159 NBatch=          27 AvBLen=         5.9
 IPart= 14 NShTot=         159 NBatch=          27 AvBLen=         5.9
 IPart=  3 NShTot=         188 NBatch=          45 AvBLen=         4.2
 IPart= 12 NShTot=         161 NBatch=          27 AvBLen=         6.0
 PrSmSu:  NxtVal=             21.
 Entering OneElI...
 Calculate potential energy integrals
    NBasis = 245  MinDer = 2  MaxDer = 2
 Requested accuracy = 0.1000D-12
 PrmmSu-InSpLW:  IPartL=    0 NPrtUS=   20 NPrtUL=    1 DoSpLW=F IThBeg=    0 IThEnd=   19 NThAct=   20.
 PrsmSu:  NPrtUS=  20 ThrOK=T IAlg=1 NPAlg=1 LenDen=           0 ISkipM=0 DoSpLW=F IThBeg=    0 IThEnd=   19.
 Prism:   IPart=     0 DynPar=F LinDyn=F Incr=          18.
 PRISM was handed    33469457 working-precision words and  3282 shell-pairs
 PRISM was handed    33469457 working-precision words and  3282 shell-pairs
 PRISM was handed    33469457 working-precision words and  3282 shell-pairs
 PRISM was handed    33469457 working-precision words and  3282 shell-pairs
 PRISM was handed    33469457 working-precision words and  3282 shell-pairs
 PRISM was handed    33469457 working-precision words and  3282 shell-pairs
 PRISM was handed    33469457 working-precision words and  3282 shell-pairs
 PRISM was handed    33469457 working-precision words and  3282 shell-pairs
 PRISM was handed    33469457 working-precision words and  3282 shell-pairs
 PRISM was handed    33469457 working-precision words and  3282 shell-pairs
 PRISM was handed    33469457 working-precision words and  3282 shell-pairs
 PRISM was handed    33469457 working-precision words and  3282 shell-pairs
 PRISM was handed    33469457 working-precision words and  3282 shell-pairs
 PRISM was handed    33469457 working-precision words and  3282 shell-pairs
 PRISM was handed    33469457 working-precision words and  3282 shell-pairs
 PRISM was handed    33469457 working-precision words and  3282 shell-pairs
 PRISM was handed    33469457 working-precision words and  3282 shell-pairs
 PRISM was handed    33469457 working-precision words and  3282 shell-pairs
 PRISM was handed    33469457 working-precision words and  3282 shell-pairs
 PRISM was handed    33469457 working-precision words and  3282 shell-pairs
 IPart= 18 NShTot=        1584 NBatch=         144 AvBLen=        11.0
 IPart= 19 NShTot=        1562 NBatch=         142 AvBLen=        11.0
 IPart= 15 NShTot=        1617 NBatch=         147 AvBLen=        11.0
 IPart= 14 NShTot=        1628 NBatch=         148 AvBLen=        11.0
 IPart= 17 NShTot=        1606 NBatch=         146 AvBLen=        11.0
 IPart= 16 NShTot=        1606 NBatch=         146 AvBLen=        11.0
 IPart= 12 NShTot=        1727 NBatch=         157 AvBLen=        11.0
 IPart=  0 NShTot=        2233 NBatch=         203 AvBLen=        11.0
 IPart= 10 NShTot=        1760 NBatch=         160 AvBLen=        11.0
 IPart= 13 NShTot=        1650 NBatch=         150 AvBLen=        11.0
 IPart=  6 NShTot=        1870 NBatch=         170 AvBLen=        11.0
 IPart=  4 NShTot=        1925 NBatch=         175 AvBLen=        11.0
 IPart=  7 NShTot=        1848 NBatch=         168 AvBLen=        11.0
 IPart=  8 NShTot=        1826 NBatch=         166 AvBLen=        11.0
 IPart= 11 NShTot=        1738 NBatch=         158 AvBLen=        11.0
 IPart=  1 NShTot=        2167 NBatch=         197 AvBLen=        11.0
 IPart=  5 NShTot=        1881 NBatch=         171 AvBLen=        11.0
 IPart=  9 NShTot=        1804 NBatch=         164 AvBLen=        11.0
 IPart=  2 NShTot=        2057 NBatch=         187 AvBLen=        11.0
 IPart=  3 NShTot=        2013 NBatch=         183 AvBLen=        11.0
 PrSmSu:  NxtVal=            361.
 Polarizability after L701:
                1             2             3 
      1  0.000000D+00
      2  0.000000D+00  0.000000D+00
      3  0.000000D+00  0.000000D+00  0.000000D+00
 Dipole Derivatives after L701:
                 1             2             3             4             5 
      1  -0.952176D+00 -0.284115D+00 -0.820717D+00 -0.494790D-01 -0.160460D+00
      2  -0.311941D-01 -0.221488D+00 -0.130055D-01  0.133944D+00 -0.300051D+00
      3  -0.301149D+00 -0.219732D+00 -0.558003D+00 -0.643170D-01  0.252308D-01
                 6             7             8             9            10 
      1   0.131526D+00 -0.353868D+00  0.710787D+00  0.606813D-01 -0.116245D+01
      2  -0.386852D-02  0.130502D+00 -0.902193D+00  0.145386D-01  0.369948D-01
      3  -0.179835D+00 -0.238716D+00 -0.174618D-01 -0.889541D+00  0.864454D-01
                11            12            13            14            15 
      1  -0.599699D+00 -0.217536D+00  0.526734D-01 -0.132786D-01  0.849524D-01
      2  -0.842275D+00  0.479307D-01  0.189961D-01  0.246737D+00 -0.189688D-01
      3   0.938042D-01 -0.921618D+00  0.792228D-01 -0.524838D-02  0.209741D+00
                16            17            18            19            20 
      1  -0.241044D-02  0.607088D-02 -0.273117D+00  0.448567D+00 -0.585719D+00
      2   0.956163D-01  0.143070D+00  0.230576D+00 -0.340177D+00  0.685733D+00
      3   0.185040D+00 -0.128164D-01  0.712802D+00  0.124522D-01  0.188156D-01
                21            22            23            24            25 
      1   0.213029D+00  0.927972D+00  0.274711D+00 -0.401440D+00 -0.290084D-01
      2  -0.189875D+00  0.267796D+00  0.204418D+00 -0.123939D+00 -0.338410D+00
      3   0.110162D+00 -0.126346D+00 -0.248507D-01  0.173091D+00  0.501134D-02
                26            27            28            29            30 
      1   0.195473D+00 -0.290240D-01  0.198887D+00 -0.505660D-02  0.621609D+00
      2   0.547777D+00 -0.843414D-01  0.290326D-01  0.127646D+00  0.159628D+00
      3  -0.211776D-01  0.132132D+00  0.814678D-01 -0.373694D-01  0.664673D+00
                31            32            33 
      1   0.921291D+00  0.461286D+00  0.630036D+00
      2  -0.310033D-02  0.310626D+00 -0.186751D-01
      3   0.280888D+00  0.200806D+00  0.546395D+00
 Hessian after L701:
                1             2             3             4             5 
      1  0.824979D+01
      2  0.761829D+00  0.642294D+01
      3 -0.327255D+01  0.315528D+01  0.625321D+01
      4 -0.553410D+01 -0.148960D+01  0.161195D+01  0.460865D+01
      5 -0.143186D+01 -0.126944D+01 -0.419183D+01  0.202115D+01  0.409010D+01
      6  0.155478D+01 -0.424012D+01 -0.180165D+01 -0.521527D+00  0.393475D+01
      7  0.476522D+00 -0.418704D+00 -0.632923D-01  0.244741D+00 -0.126790D+00
      8 -0.348893D+00 -0.226807D+00  0.518959D-01 -0.153254D-01 -0.892219D-01
      9 -0.150097D-01  0.240816D-01 -0.396641D+00 -0.852323D-01  0.267042D-01
     10  0.276067D+00  0.583105D-01  0.555344D-01  0.462565D+00  0.317459D+00
     11 -0.646369D-01 -0.190255D+00 -0.535173D-02  0.291989D+00 -0.254305D+00
     12  0.609333D-01  0.774333D-02 -0.193420D+00 -0.197821D+00 -0.659479D-01
     13  0.399381D-01  0.524483D-01 -0.166478D+00 -0.830507D-01 -0.842858D+00
     14  0.632316D-01  0.206206D-01  0.131443D+00 -0.964574D+00 -0.240344D+01
     15 -0.124055D+00  0.953679D-01  0.958631D-02 -0.814160D+00  0.169171D+00
     16  0.386322D-01 -0.451254D-01 -0.430257D-01 -0.392341D-02 -0.243696D-01
     17 -0.551344D-01 -0.377729D-01  0.200934D-01 -0.176773D-01 -0.391466D-01
     18 -0.890373D-01  0.444609D-01 -0.115381D-01 -0.100789D+00  0.331645D-01
     19  0.347552D-01 -0.477146D-01  0.275597D-02  0.917532D-01 -0.496976D-01
     20 -0.584144D-01  0.247384D-01 -0.504198D-02 -0.641506D-01 -0.998812D-02
     21  0.124607D-01 -0.130933D-01 -0.206161D-01 -0.182627D-01  0.609371D-02
     22  0.396984D-01  0.485824D-02 -0.812281D-02  0.505420D-01  0.168242D-01
     23  0.103058D-01 -0.130564D-01 -0.430627D-02  0.275119D-01 -0.146743D-01
     24 -0.618220D-02  0.634636D-04 -0.140362D-01 -0.211467D-01 -0.695393D-02
     25  0.140142D+00  0.534962D-01  0.490193D-01 -0.217486D-01  0.189692D-01
     26  0.136911D+00 -0.872245D-01  0.165016D-01  0.675285D-01  0.480285D-01
     27  0.412608D-01  0.815983D-02 -0.117911D+00 -0.361064D-02 -0.655134D-02
     28  0.331821D-01  0.835674D-03  0.293862D-01  0.725244D-01  0.350736D-01
     29  0.151898D-02 -0.214882D-01 -0.994791D-03  0.332252D-01 -0.304062D-01
     30  0.492954D-01 -0.681919D-03  0.332907D-02  0.686491D-01  0.175786D-01
     31 -0.379462D+01  0.106936D+01  0.180482D+01  0.112047D+00  0.660981D-01
     32  0.985139D+00 -0.462226D+01  0.832317D+00  0.109924D+00 -0.275046D-01
     33  0.178810D+01  0.918737D+00 -0.371032D+01  0.819477D-01  0.838218D-01
                6             7             8             9            10 
      6  0.458469D+01
      7 -0.102048D+00  0.970889D+01
      8 -0.251926D-01  0.191322D-02  0.917500D+01
      9 -0.172840D+00 -0.378135D+00 -0.869961D+00  0.107955D+02
     10 -0.158269D+00 -0.443722D+01  0.119951D+01  0.550685D+00  0.108631D+02
     11 -0.552894D-01  0.108229D+01 -0.160207D+01  0.138335D+01 -0.787650D+00
     12 -0.324698D+00  0.486883D+00  0.135788D+01 -0.420875D+01 -0.245965D+00
     13 -0.822973D+00 -0.276439D+00  0.582913D-01 -0.857102D+00  0.256040D-01
     14  0.194395D+00  0.200756D+00 -0.216045D+01 -0.982556D-01 -0.278429D-02
     15 -0.241473D+01 -0.895054D+00 -0.323709D-01 -0.173326D+01 -0.198719D-01
     16 -0.561127D-01 -0.312772D+01 -0.146795D-02  0.548521D+00  0.344990D-01
     17  0.232688D-01  0.334855D-01 -0.333004D+01  0.877150D-01 -0.529690D-01
     18  0.866061D-01  0.715622D+00  0.227291D-01 -0.134567D+01 -0.478252D-01
     19 -0.225357D-01 -0.277223D+01 -0.849315D+00  0.262433D+00  0.538714D-01
     20  0.114956D-01 -0.801749D+00 -0.172566D+01 -0.482754D+00 -0.253978D-01
     21 -0.330584D-01  0.226821D+00 -0.435139D+00 -0.305447D+01  0.157388D-01
     22 -0.212037D-01  0.726464D-01  0.180249D-01 -0.361539D-01 -0.159831D+01
     23 -0.525509D-02  0.952421D-02  0.142182D-01 -0.613162D-02  0.518811D+00
     24 -0.104322D-01 -0.426995D-01 -0.162993D-01  0.263212D-01 -0.648480D+00
     25  0.148246D-01  0.708542D-01 -0.520524D-01  0.673909D-02 -0.253168D+01
     26 -0.190790D-02  0.831479D-02 -0.404030D-01 -0.132681D-01 -0.123271D+01
     27 -0.268445D-01  0.180518D-01 -0.222214D-01  0.297999D-01  0.216573D+00
     28  0.240507D-01  0.195384D-01 -0.127740D-01 -0.130860D-01 -0.320365D+01
     29  0.616138D-02 -0.271643D-02 -0.508262D-02 -0.578179D-01 -0.139783D-01
     30 -0.213096D-01  0.133208D-01 -0.322775D-01  0.583253D-01  0.246196D+00
     31  0.111011D+00  0.204219D-01  0.208366D-02  0.163406D-01  0.551220D-01
     32  0.157688D+00  0.136735D-01 -0.946925D-02  0.634014D-02  0.213917D-01
     33  0.134266D+00  0.205303D-01  0.955349D-03  0.168680D-02  0.356837D-01
               11            12            13            14            15 
     11  0.104106D+02
     12 -0.626922D+00  0.119991D+02
     13  0.285947D-01 -0.494501D-02  0.314199D+00
     14 -0.141359D-01 -0.137384D-01  0.662453D+00  0.452070D+01
     15 -0.186090D-01 -0.735142D-02  0.179272D+01 -0.214209D+00  0.418857D+01
     16 -0.246485D-01 -0.226742D-01  0.531744D-02 -0.795871D-02  0.732017D-01
     17 -0.120788D-02 -0.898862D-01 -0.329698D-02  0.396425D-01  0.788313D-02
     18 -0.805886D-01  0.312219D-01  0.416131D-01  0.178989D-01 -0.556735D-01
     19 -0.280953D-01  0.175769D-01 -0.526260D-01  0.415815D-01  0.549267D-02
     20 -0.320474D-01 -0.197828D-01  0.189201D-01  0.110627D-01 -0.289328D-02
     21 -0.340947D-01  0.281325D-01  0.229108D-01 -0.142151D-01  0.171908D-01
     22  0.508110D+00 -0.679731D+00  0.367098D-01  0.278899D-01 -0.111672D-01
     23 -0.289254D+01 -0.263985D+00  0.250030D-01  0.522487D-02 -0.627577D-02
     24 -0.246412D+00 -0.275012D+01 -0.129697D-01 -0.612007D-02 -0.810060D-02
     25 -0.992530D+00  0.195664D+00 -0.157232D-02 -0.166131D-01  0.295027D-02
     26 -0.213604D+01 -0.299641D+00 -0.437638D-02 -0.167392D-01  0.190883D-02
     27 -0.267653D+00 -0.334850D+01  0.898487D-03  0.289090D-02  0.443812D-02
     28 -0.199575D-01  0.370138D+00 -0.252051D-02 -0.643019D-02 -0.485940D-02
     29 -0.327199D+01  0.874550D-02 -0.291524D-02 -0.143026D-02 -0.404891D-02
     30 -0.497237D-01 -0.121672D+01  0.271968D-02 -0.131578D-02  0.185579D-02
     31  0.653252D-02  0.199409D-01 -0.555939D-02  0.244818D-02 -0.519435D-02
     32 -0.159848D-01  0.553418D-02  0.773594D-02 -0.104887D-02  0.407575D-02
     33  0.129800D-02 -0.885599D-02  0.360754D-02  0.122634D-02 -0.252389D-02
               16            17            18            19            20 
     16  0.300246D+01
     17  0.366722D-01  0.336879D+01
     18 -0.433446D+00 -0.176799D+00  0.130941D+01
     19  0.272998D-01  0.597445D-01 -0.101651D+00  0.261808D+01
     20  0.548467D-01  0.243700D-01  0.112217D+00  0.911803D+00  0.164132D+01
     21 -0.955573D-01  0.112433D+00 -0.664743D-01 -0.164684D+00  0.393618D+00
     22  0.708601D-02  0.181312D-02  0.936178D-02 -0.425640D-03  0.330649D-02
     23  0.481800D-02  0.123068D-02  0.530014D-02 -0.464007D-02 -0.213448D-02
     24 -0.198465D-03 -0.388374D-03 -0.856799D-03  0.133869D-02 -0.334431D-02
     25  0.590549D-02 -0.402623D-02 -0.732639D-02 -0.102810D-01 -0.315595D-01
     26  0.284125D-02 -0.111187D-01 -0.618971D-02 -0.343648D-01  0.766385D-01
     27  0.210502D-02 -0.136544D-01 -0.104265D-02 -0.140917D-02 -0.180731D-02
     28 -0.926232D-02  0.941394D-02  0.278521D-01  0.358049D-02 -0.860702D-03
     29  0.748662D-02 -0.938424D-02  0.301930D-01 -0.897594D-03 -0.566984D-02
     30  0.260389D-01  0.300127D-01  0.655522D-01 -0.443191D-02  0.298002D-02
     31  0.197068D-01 -0.802537D-02 -0.143739D-01  0.622394D-02 -0.674450D-02
     32 -0.309462D-02 -0.535386D-02 -0.238620D-02  0.159590D-02 -0.262914D-02
     33  0.114812D-02 -0.678000D-03 -0.115335D-01  0.511479D-02 -0.468707D-02
               21            22            23            24            25 
     21  0.314339D+01
     22 -0.288570D-02  0.149751D+01
     23 -0.250925D-02 -0.653093D+00  0.274836D+01
     24  0.397094D-02  0.591597D+00  0.256163D+00  0.277678D+01
     25  0.611522D-03 -0.160424D+00  0.802859D-01  0.282446D-01  0.249606D+01
     26 -0.413674D-02  0.860611D-01  0.838590D-01 -0.203391D-01  0.896628D+00
     27 -0.179925D-01  0.443845D-01 -0.245589D-01  0.903643D-01 -0.196518D+00
     28  0.144367D-03  0.478308D-01 -0.209122D-01  0.111470D+00  0.244505D-01
     29 -0.932376D-02 -0.171296D-01  0.689281D-01  0.441691D-01  0.515560D-01
     30 -0.204465D-03  0.109361D+00  0.498334D-01 -0.112249D+00 -0.888772D-01
     31  0.270280D-02  0.712918D-02  0.238522D-02 -0.973118D-03 -0.117092D-01
     32  0.367224D-03  0.333508D-02  0.582805D-03 -0.538723D-03 -0.415465D-02
     33  0.136888D-03  0.456038D-02  0.172578D-02 -0.163677D-02 -0.533160D-02
               26            27            28            29            30 
     26  0.205489D+01
     27  0.217972D+00  0.343523D+01
     28  0.709861D-01 -0.119597D+00  0.301031D+01
     29  0.245842D-01  0.108130D+00 -0.570473D-01  0.325282D+01
     30  0.106060D+00 -0.474417D-01 -0.429614D+00 -0.125627D+00  0.126383D+01
     31  0.217850D-02 -0.213875D-02  0.401219D-02  0.897737D-03  0.734246D-02
     32  0.352802D-02 -0.706358D-03  0.167252D-02 -0.880121D-03  0.316130D-02
     33  0.304011D-02 -0.101876D-03  0.411550D-02  0.412930D-03  0.503249D-02
               31            32            33 
     31  0.358723D+01
     32 -0.113722D+01  0.468102D+01
     33 -0.193948D+01 -0.100585D+01  0.359385D+01
 Leave Link  701 at Thu May 23 12:18:55 2019, MaxMem=   671088640 cpu:               6.7 elap:               0.4
 (Enter /shared/centos7/gaussian/g16/l702.exe)
 L702 exits ... SP integral derivatives will be done elsewhere.
 Leave Link  702 at Thu May 23 12:18:55 2019, MaxMem=   671088640 cpu:               0.3 elap:               0.0
 (Enter /shared/centos7/gaussian/g16/l703.exe)
 Integral derivatives from FoFJK, PRISM(SPDF).
 Compute integral second derivatives, UseDBF=F ICtDFT=           0.
 ICntrl=    100147.
 Calling FoFJK, ICntrl=    100147 FMM=F ISym2X=0 I1Cent= 0 IOpClX= 1 NMat=1 NMatS=1 NMatT=0.
 FoFJK:  IHMeth= 1 ICntrl=  100147 DoSepK=F KAlg= 0 I1Cent=           0 FoldK=F
 IRaf=         0 NMat=       1 IRICut=       1 DoRegI=T DoRafI=F ISym2E= 0 IDoP0=0 IntGTp=1.
 FoFCou: FMM=F IPFlag=           0 FMFlag=      100000 FMFlg1=         800
         NFxFlg=           0 DoJE=F BraDBF=F KetDBF=F FulRan=T
         wScrn=  0.000000 ICntrl=    100147 IOpCl=  1 I1Cent=           0 NGrid=           0
         NMat0=    1 NMatS0=      1 NMatT0=    0 NMatD0=    1 NMtDS0=    0 NMtDT0=    0
 Symmetry not used in FoFCou.
 FoFCou:  KetSym=F NOpSet=  1 NOpAb=1 NOp=  1.
 FoFCou:  CnvScl= 1.00D+00 Thresh= 1.00D-08 IAcrcy=      12.
 PrismS was handed   670722906 working-precision words and  3350 shell-pairs
 FoFCou: LinMIO=F DoNuc=F BraDBF=F KetDBF=F HaveP=T PDBF=F HaveZ=T HaveW=F
         NIJTC =      10 NIJTAt=       0 NIJTCD=       0 NIJTT =      10
         IJTBeg=       1 IJTEnd=      10 KLTBeg=       1 KLTEnd=      10
         IPTBeg=       1 IPTEnd=      10 IPTBCv=       1 IPTECv=      10
         IZTBeg=       1 IZTEnd=      10 IZTBCv=       1 IZTECv=      10
         IWTBeg=      11 IWTEnd=      10 IWTBCv=      11 IWTECv=      10
         INTBeg=       1 INTEnd=       0 IFTBCv=       1 IFTECv=      10
 NCel replicated for PrismC:     1
 CoulSu-InSpLW:  IPartL=    0 NPrtUS=   20 NPrtUL=    1 DoSpLW=F IThBeg=    0 IThEnd=   19 NThAct=   20.
 CoulSu:  IncDef=  1024 NBBP=        5612925 NTPThr=   100 NPartT=   20 Incr=        1024 LDynOK=F GPUOK=T.
 CoulSu:  NPrtUS=  20 ThrOK=T IAlg=1 NPAlg=1 LenDen=           0 LWGrdD=           0 DoCopy=F ISkipM=0
          DoSpLW=F IThBeg=    0 IThEnd=   19.
 Enter PrismC:  IPart=  0 JobTyp=22 DoJE=F Cont=F.
 PrismC:  IPart=     0 DynPar=T LinDyn=F Incr=        1024 UseFst=F UseS4=T ISplat=2.
 PrismC was handed    33466859 working-precision words and  3350 shell-pairs
 Enter PrismC:  IPart= 16 JobTyp=22 DoJE=F Cont=F.
 Enter PrismC:  IPart= 15 JobTyp=22 DoJE=F Cont=F.
[...]
                                 (Linear)    (Quad)   (Total)
    R1        2.62366   0.00000   0.00000   0.00000   0.00000   2.62366
    R2        1.82381  -0.00000   0.00000  -0.00000  -0.00000   1.82381
    R3        2.22399   0.00000   0.00000   0.00002   0.00002   2.22401
    R4        2.83329   0.00000   0.00000   0.00000   0.00000   2.83330
    R5        2.52330   0.00000   0.00000  -0.00002  -0.00002   2.52328
    R6        2.05404  -0.00000   0.00000   0.00000   0.00000   2.05404
    R7        2.05315   0.00000   0.00000   0.00000   0.00000   2.05315
    R8        2.06807   0.00000   0.00000   0.00000   0.00000   2.06807
    R9        2.05881  -0.00000   0.00000  -0.00001  -0.00001   2.05880
   R10        2.05743   0.00000   0.00000   0.00000   0.00000   2.05743
    A1        1.79912  -0.00000   0.00000   0.00000   0.00000   1.79913
    A2        1.81380   0.00000   0.00000  -0.00002  -0.00002   1.81378
    A3        1.81938   0.00001   0.00000   0.00002   0.00002   1.81940
    A4        2.02632   0.00000   0.00000   0.00002   0.00002   2.02633
    A5        2.03256  -0.00000   0.00000  -0.00003  -0.00003   2.03253
    A6        1.78743  -0.00000   0.00000   0.00003   0.00003   1.78746
    A7        1.78269  -0.00000   0.00000  -0.00004  -0.00004   1.78265
    A8        1.96912   0.00000   0.00000  -0.00000  -0.00000   1.96912
    A9        1.93371  -0.00000   0.00000  -0.00001  -0.00001   1.93371
   A10        1.93742   0.00000   0.00000   0.00002   0.00002   1.93744
   A11        1.94095  -0.00000   0.00000  -0.00002  -0.00002   1.94093
   A12        1.88028  -0.00000   0.00000   0.00001   0.00001   1.88028
   A13        1.88221   0.00000   0.00000  -0.00001  -0.00001   1.88220
   A14        1.88698   0.00000   0.00000   0.00001   0.00001   1.88699
   A15        2.98893   0.00001   0.00000   0.00001   0.00001   2.98895
    D1       -1.67975  -0.00000   0.00000   0.00010   0.00010  -1.67964
    D2       -0.36425  -0.00001   0.00000  -0.00551  -0.00551  -0.36976
    D3        3.07423   0.00000   0.00000   0.00055   0.00055   3.07478
    D4        0.98584   0.00000   0.00000   0.00053   0.00053   0.98637
    D5       -1.11581   0.00000   0.00000   0.00051   0.00051  -1.11530
    D6        1.12304  -0.00000   0.00000   0.00049   0.00049   1.12353
    D7       -0.96534   0.00000   0.00000   0.00047   0.00047  -0.96487
    D8       -3.06700  -0.00000   0.00000   0.00046   0.00046  -3.06654
    D9       -1.26058   0.00000   0.00000   0.00050   0.00050  -1.26007
   D10        2.93422   0.00000   0.00000   0.00049   0.00049   2.93471
   D11        0.83257   0.00000   0.00000   0.00047   0.00047   0.83304
   D12       -0.43654  -0.00000   0.00000   0.00479   0.00479  -0.43174
   D13        1.68182   0.00000   0.00000   0.00484   0.00484   1.68666
   D14       -2.55978  -0.00000   0.00000   0.00483   0.00483  -2.55495
         Item               Value     Threshold  Converged?
 Maximum Force            0.000008     0.000450     YES
 RMS     Force            0.000002     0.000300     YES
 Maximum Displacement     0.001272     0.001800     YES
 RMS     Displacement     0.000510     0.001200     YES
 Predicted change in Energy=-9.969399D-09
 Optimization completed.
    -- Stationary point found.
                           ----------------------------
                           !   Optimized Parameters   !
                           ! (Angstroms and Degrees)  !
 --------------------------                            --------------------------
 ! Name  Definition              Value          Derivative Info.                !
 --------------------------------------------------------------------------------
 ! R1    R(1,2)                  1.3884         -DE/DX =    0.0                 !
 ! R2    R(1,11)                 0.9651         -DE/DX =    0.0                 !
 ! R3    R(2,5)                  1.1769         -DE/DX =    0.0                 !
 ! R4    R(3,4)                  1.4993         -DE/DX =    0.0                 !
 ! R5    R(3,5)                  1.3353         -DE/DX =    0.0                 !
 ! R6    R(3,6)                  1.0869         -DE/DX =    0.0                 !
 ! R7    R(3,7)                  1.0865         -DE/DX =    0.0                 !
 ! R8    R(4,8)                  1.0944         -DE/DX =    0.0                 !
 ! R9    R(4,9)                  1.0895         -DE/DX =    0.0                 !
 ! R10   R(4,10)                 1.0887         -DE/DX =    0.0                 !
 ! A1    A(2,1,11)             103.0822         -DE/DX =    0.0                 !
 ! A2    A(1,2,5)              103.9232         -DE/DX =    0.0                 !
 ! A3    A(4,3,5)              104.2427         -DE/DX =    0.0                 !
 ! A4    A(4,3,6)              116.0994         -DE/DX =    0.0                 !
 ! A5    A(4,3,7)              116.4568         -DE/DX =    0.0                 !
 ! A6    A(5,3,6)              102.4121         -DE/DX =    0.0                 !
 ! A7    A(5,3,7)              102.1404         -DE/DX =    0.0                 !
 ! A8    A(6,3,7)              112.8224         -DE/DX =    0.0                 !
 ! A9    A(3,4,8)              110.7937         -DE/DX =    0.0                 !
 ! A10   A(3,4,9)              111.0058         -DE/DX =    0.0                 !
 ! A11   A(3,4,10)             111.2085         -DE/DX =    0.0                 !
 ! A12   A(8,4,9)              107.7319         -DE/DX =    0.0                 !
 ! A13   A(8,4,10)             107.8426         -DE/DX =    0.0                 !
 ! A14   A(9,4,10)             108.1158         -DE/DX =    0.0                 !
 ! A15   A(2,5,3)              171.2533         -DE/DX =    0.0                 !
 ! D1    D(11,1,2,5)           -96.2424         -DE/DX =    0.0                 !
 ! D2    D(1,2,5,3)            -20.8698         -DE/DX =    0.0                 !
 ! D3    D(5,3,4,8)            176.1403         -DE/DX =    0.0                 !
 ! D4    D(5,3,4,9)             56.4847         -DE/DX =    0.0                 !
 ! D5    D(5,3,4,10)           -63.9312         -DE/DX =    0.0                 !
 ! D6    D(6,3,4,8)             64.3455         -DE/DX =    0.0                 !
 ! D7    D(6,3,4,9)            -55.3102         -DE/DX =    0.0                 !
 ! D8    D(6,3,4,10)          -175.7261         -DE/DX =    0.0                 !
 ! D9    D(7,3,4,8)            -72.2257         -DE/DX =    0.0                 !
 ! D10   D(7,3,4,9)            168.1186         -DE/DX =    0.0                 !
 ! D11   D(7,3,4,10)            47.7027         -DE/DX =    0.0                 !
 ! D12   D(4,3,5,2)            -25.0117         -DE/DX =    0.0                 !
 ! D13   D(6,3,5,2)             96.3613         -DE/DX =    0.0                 !
 ! D14   D(7,3,5,2)           -146.6645         -DE/DX =    0.0                 !
 --------------------------------------------------------------------------------
 GradGradGradGradGradGradGradGradGradGradGradGradGradGradGradGradGradGrad

 Leave Link  103 at Thu May 23 12:27:43 2019, MaxMem=   671088640 cpu:               0.3 elap:               0.0
 (Enter /shared/centos7/gaussian/g16/l9999.exe)

 ----------------------------------------------------------------------

 Electric dipole moment (input orientation):
 (Debye = 10**-18 statcoulomb cm , SI units = C m)
                  (au)            (Debye)         (10**-30 SI)
   Tot        0.858968D+00      0.218328D+01      0.728263D+01
   x         -0.401096D+00     -0.101948D+01     -0.340063D+01
   y         -0.493131D-01     -0.125341D+00     -0.418094D+00
   z          0.757968D+00      0.192656D+01      0.642632D+01

 Dipole polarizability, Alpha (input orientation).
 (esu units = cm**3 , SI units = C**2 m**2 J**-1)
 Alpha(0;0):
               (au)            (10**-24 esu)      (10**-40 SI)
   iso        0.458540D+02      0.679485D+01      0.756030D+01
   aniso      0.282005D+02      0.417888D+01      0.464963D+01
   xx         0.638260D+02      0.945803D+01      0.105235D+02
   yx        -0.278667D+01     -0.412943D+00     -0.459461D+00
   yy         0.391782D+02      0.580561D+01      0.645961D+01
   zx        -0.312099D+01     -0.462484D+00     -0.514583D+00
   zy        -0.127583D-01     -0.189059D-02     -0.210357D-02
   zz         0.345577D+02      0.512092D+01      0.569780D+01

 ----------------------------------------------------------------------

 Dipole orientation:
     8          2.70056951         -1.04352575         -1.46466599
     8          1.68534422          1.33966036         -1.88096851
     6         -1.58721533          1.40953998          1.53835233
     6         -2.72233832         -1.16695499          1.22098431
     1          0.14848234          1.55244174         -0.28757146
     1         -0.46757989          1.70089743          3.23558464
     1         -2.80394565          3.00507583          1.10332422
     1         -4.10006377         -1.55130799          2.71465673
     1         -1.27439434         -2.62770756          1.31248113
     1         -3.68905553         -1.33680187         -0.58722195
     1          4.19097729         -0.69015601         -0.47466242

 Electric dipole moment (dipole orientation):
 (Debye = 10**-18 statcoulomb cm , SI units = C m)
                  (au)            (Debye)         (10**-30 SI)
   Tot        0.858968D+00      0.218328D+01      0.728263D+01
   x          0.000000D+00      0.000000D+00      0.000000D+00
   y          0.000000D+00      0.000000D+00      0.000000D+00
   z          0.858968D+00      0.218328D+01      0.728263D+01

 Dipole polarizability, Alpha (dipole orientation).
 (esu units = cm**3 , SI units = C**2 m**2 J**-1)
 Alpha(0;0):
               (au)            (10**-24 esu)      (10**-40 SI)
   iso        0.458540D+02      0.679485D+01      0.756030D+01
   aniso      0.282005D+02      0.417888D+01      0.464963D+01
   xx         0.549325D+02      0.814015D+01      0.905714D+01
   yx        -0.303796D+01     -0.450179D+00     -0.500892D+00
   yy         0.392508D+02      0.581637D+01      0.647158D+01
   zx        -0.137111D+02     -0.203178D+01     -0.226065D+01
   zy         0.133821D+01      0.198302D+00      0.220641D+00
   zz         0.433785D+02      0.642804D+01      0.715216D+01

 ----------------------------------------------------------------------

 Test job not archived.
 1\1\GINC-C0085\Freq\UM062X\CC-pVTZ\C2H7O2(2)\HARMS.N\23-May-2019\0\\#P
  Geom=AllCheck Guess=TCheck SCRF=Check Test GenChk UM062X/CC-pVTZ Freq
 \\Gaussian input prepared by ASE\\0,2\O,1.6333301258,-0.5270983204,-0.
 048325773\O,1.2432331548,0.7521193594,-0.4211814423\C,-1.133378056,0.7
 098167608,0.3689630112\C,-1.566643478,-0.6330225829,-0.1379959211\H,0.
 1288318141,0.8276958445,-0.0504300732\H,-1.0311022776,0.8037272219,1.4
 470077553\H,-1.6071927433,1.5750450693,-0.0863572434\H,-2.5774458276,-
 0.8710523773,0.2073701922\H,-0.900777338,-1.4183575169,0.2181380958\H,
 -1.570865652,-0.660526021,-1.2263830129\H,2.0833722778,-0.3817384374,0
 .7929764113\\Version=EM64L-G16RevA.03\State=2-A\HF=-230.6765832\S2=0.7
 59761\S2-1=0.\S2A=0.750047\RMSD=6.200e-10\RMSF=3.450e-06\ZeroPoint=0.0
 855608\Thermal=0.0920589\Dipole=-0.4010957,-0.0493131,0.7579684\Dipole
 Deriv=-0.5189202,0.0680081,0.1026495,0.772976,-0.3775491,-0.0790636,-0
 .2978764,0.1870214,-0.1407766,0.6125983,-0.1740954,-0.156087,-0.936964
 4,0.0081594,0.1117165,0.0662878,-0.129481,-0.2074504,0.9411812,-0.0780
 962,-0.1272176,0.2624597,0.0846331,-0.0406992,-0.2069869,0.0268523,0.1
 358201,-0.2431728,-0.0499935,0.0039784,-0.050048,-0.0513448,-0.0047219
 ,0.0913619,0.0131201,0.0278589,-1.0522365,0.1147134,0.211123,0.0870586
 ,0.0979972,0.0014907,0.3767232,-0.0212815,0.0608311,-0.0788127,0.01997
 66,0.0141034,-0.0185343,0.0200706,-0.0101002,-0.0157361,-0.0486902,-0.
 1034229,-0.0845263,0.0831452,-0.0146584,-0.0134819,-0.0594818,0.027670
 8,0.0380258,0.02813,0.0213887,-0.0651671,-0.0552277,0.0447027,-0.12891
 47,0.043133,0.001882,-0.000094,-0.0108322,0.0639122,0.0520216,0.083964
 8,-0.039341,0.0288478,-0.0217037,0.0221937,-0.0589242,0.0210755,0.0410
 092,0.0888941,-0.0046156,0.0063291,-0.0209475,0.0364982,0.0036146,-0.0
 265645,-0.0280868,-0.100177,0.3481404,-0.0077796,-0.0455821,0.0175488,
 0.2195877,-0.0339835,0.0337834,-0.0378278,0.2010069\Polar=63.8259726,-
 2.7866745,39.1781708,-3.1209948,-0.0127583,34.5577073\Quadrupole=0.851
 973,-1.1743938,0.3224208,-0.9014474,2.8782444,-0.3586039\PG=C01 [X(C2H
 7O2)]\NImag=1\\0.18260518,-0.04603452,0.32963315,0.24095828,0.03126167
 ,0.44982728,-0.05529829,0.03524817,-0.02275615,0.10139703,0.07041111,-
 0.25161919,0.08707713,-0.03246705,0.28526510,-0.02819283,0.05218944,-0
 .06329898,0.00526225,-0.11625337,0.09110452,0.00581897,-0.03452613,0.0
 1561550,-0.13999433,0.04653906,0.03259335,0.21526492,0.00338005,-0.008
 17845,0.00276194,-0.01888463,0.01265162,0.00251267,-0.06088510,0.52954
 254,-0.00193776,0.01012613,-0.00434009,0.04696544,-0.01340027,-0.00966
 127,0.11443475,-0.01463531,0.54682357,-0.00008627,0.00623471,-0.003642
 19,0.01052176,-0.00988570,-0.00099228,-0.06331336,-0.03805378,-0.02716
 006,0.53094196,0.00008173,-0.00023203,0.00050429,0.00348174,0.00021333
 ,-0.00134511,-0.03075891,-0.19758572,-0.04512691,-0.02846180,0.5009392
 9,0.00065846,-0.00222781,0.00163360,-0.00246909,0.00355634,-0.00000514
 ,-0.02414722,-0.04455838,-0.09764100,0.00342221,-0.02357186,0.56704701
 ,-0.01471825,0.06063648,-0.02515977,0.07103109,-0.06955901,-0.00347858
 ,0.10098875,0.02055658,-0.03714509,-0.02851639,-0.00950822,0.00682245,
 -0.09696490,0.02848902,-0.01545830,-0.00230876,-0.02382848,-0.02251941
 ,0.01377494,-0.00878223,-0.02332505,0.00432888,-0.01222400,-0.00498584
 ,0.00271423,0.00449172,0.06963539,-0.00454658,-0.01527344,0.00814463,-
 0.01569899,0.02878831,-0.01653234,-0.03912188,-0.00486327,-0.01016440,
 0.00274739,0.00108391,-0.00077309,0.04608060,-0.01384727,0.02741967,-0
 .00083546,0.00494937,-0.00303317,0.00888170,-0.00674036,-0.00007483,-0
 .02751491,0.00212335,-0.02164593,0.00012611,-0.00052183,-0.01268912,-0
 .01487039,0.00130017,0.01789055,0.03062470,-0.00025740,0.00019643,-0.0
 0006424,0.00045836,-0.00045503,0.00012639,0.00057327,-0.05405714,-0.01
 898164,-0.00125706,0.00128815,-0.02938308,-0.00060129,-0.00012931,0.00
 142924,0.00202649,0.05233233,0.00048383,-0.00122098,0.00063627,-0.0008
 4003,0.00148096,0.00090038,-0.03419074,-0.02041765,-0.32564960,0.00082
 995,0.00072401,-0.00608455,0.00112702,-0.00025460,-0.00718521,0.032353
 12,0.02434340,0.34490886,-0.00144215,0.00433266,-0.00155511,0.00865198
 ,-0.00551612,-0.00084612,-0.08601629,0.10860381,-0.06635548,0.00839406
 ,-0.01180138,0.00577244,-0.02025738,0.01171876,-0.00203105,0.00171323,
 0.00048895,0.00098170,0.08960924,-0.00057803,0.00155418,-0.00068405,0.
 00307877,-0.00131868,-0.00083921,0.09861294,-0.22321215,0.09253080,0.0
 1488618,-0.01799684,0.01160461,-0.00381543,-0.00012205,0.00153374,-0.0
 0117053,0.00412306,-0.00233584,-0.10773122,0.23940714,0.00086536,-0.00
 251299,0.00100890,-0.00513065,0.00252838,0.00085356,-0.06029635,0.0901
 4927,-0.09923418,0.00509177,-0.00787245,0.00626891,0.00903445,-0.00310
 251,-0.00101772,-0.01483707,0.02325785,-0.00891731,0.06477393,-0.09970
 191,0.10004920,-0.00037710,-0.00060170,0.00029258,-0.00077578,0.001208
 55,0.00004061,-0.00980586,-0.00600995,0.00074689,-0.26426773,-0.046098
 92,0.07895559,0.00260927,-0.00128756,-0.00119513,0.00073963,-0.0001742
 8,-0.00035812,0.00004905,-0.00034398,-0.00015285,0.28955642,-0.0000262
 6,0.00280184,-0.00145441,0.00219068,-0.00327980,0.00067872,-0.02606068
 ,-0.01098564,0.00699277,-0.05238276,-0.05166186,0.01936485,-0.00420087
 ,-0.00207879,-0.00001521,0.00090369,0.00076960,-0.00018033,0.00117853,
 0.00037591,-0.00026522,0.05675359,0.05948319,-0.00013197,0.00114479,-0
 .00055352,0.00111210,-0.00153324,0.00020593,-0.00938314,-0.00196955,0.
 00254823,0.07560163,0.01603814,-0.07073879,-0.00296187,-0.00071833,0.0
 0096855,0.00074628,0.00050516,0.00018896,0.00016072,0.00022312,0.00015
 620,-0.08499969,-0.01763175,0.07367905,-0.00071481,-0.00032446,0.00000
 378,0.00000156,0.00062837,0.00010265,0.00702766,-0.00887842,0.00513300
 ,-0.14745651,0.12113931,-0.05698584,0.00103256,-0.00054305,0.00009457,
 0.00033907,0.00077875,0.00002511,-0.00068874,-0.00291642,-0.00040930,-
 0.01832777,0.02121621,-0.01060862,0.15885043,0.00050094,0.00147382,-0.
 00102986,0.00041685,-0.00143927,0.00077610,0.01697378,-0.02415835,0.01
 118699,0.11949048,-0.18213030,0.06376688,0.00047883,-0.00032107,0.0000
 4659,-0.00070656,0.00119173,-0.00027964,-0.00203552,-0.00411750,-0.003
 06440,-0.00420439,0.00524067,-0.00274295,-0.12913966,0.20339848,0.0000
 4018,0.00001358,-0.00035928,-0.00014033,0.00001838,-0.00010854,0.00854
 926,-0.00720390,0.00498044,-0.05619195,0.06265485,-0.07966963,-0.00006
 466,0.00015819,0.00013573,0.00077039,0.00058106,0.00034787,-0.00135303
 ,-0.00226157,0.00042090,0.00688571,-0.00819594,0.00296081,0.06226153,-
 0.06869107,0.08040732,-0.00016607,-0.00015889,0.00038169,0.00006433,0.
 00046264,0.00043783,-0.00224964,-0.00132479,-0.01165805,-0.04587070,0.
 00238087,0.00049042,0.00098164,-0.00002814,-0.00091355,0.00077261,-0.0
 0226132,-0.00069686,-0.00012572,0.00006023,0.00086512,0.00055063,0.000
 47037,0.03040700,0.00015618,-0.00152163,-0.02047318,0.04574159,-0.0000
 1201,0.00027892,-0.00022248,0.00007884,-0.00002584,0.00047338,-0.00106
 253,-0.00045996,-0.03304442,0.00159633,-0.04793562,-0.00120293,0.00053
 808,0.00027204,-0.00051730,-0.00246138,-0.00537394,-0.00167447,0.00071
 325,0.00127565,0.00065801,0.00082345,-0.00077496,0.00660663,-0.0020139
 1,0.00077532,0.02314885,0.00182013,0.05207417,-0.00045058,0.00036136,-
 0.00016765,-0.00006752,-0.00036048,0.00041688,-0.00058690,-0.00102394,
 -0.00983824,-0.00078993,-0.00295803,-0.31949905,0.00008900,-0.00001491
 ,-0.00018662,0.00007763,-0.00178537,0.00115492,-0.00013248,-0.00028994
 ,0.00083124,-0.00018460,0.00031977,-0.00955468,0.00061804,-0.00010478,
 -0.00921229,0.00127464,0.00578553,0.34605550,-0.11478576,-0.02975570,-
 0.20110543,-0.00448105,0.00491851,-0.00485205,-0.00020591,-0.00062713,
 -0.00137771,-0.00047294,0.00006742,0.00016971,-0.00131599,0.00069380,-
 0.00330593,0.00002372,0.00022553,0.00028501,0.00011273,-0.00008250,0.0
 0019558,0.00004924,-0.00004249,0.00005754,-0.00021964,-0.00025311,-0.0
 0028392,0.00014515,-0.00002025,0.00015271,0.12115046,-0.05595464,-0.06
 045038,-0.11584121,0.03022674,-0.01747282,0.04790605,-0.00062347,-0.00
 023171,0.00002298,0.00005740,0.00008744,-0.00006284,0.00098313,-0.0009
 6761,0.00163469,0.00029760,0.00011412,-0.00018487,0.00004830,0.0000312
 7,-0.00007404,-0.00006481,0.00010984,0.00007799,0.00005328,0.00008648,
 -0.00022244,0.00010054,-0.00010578,0.00007080,0.02487593,0.07879914,-0
 .20774639,-0.07386175,-0.39253117,-0.00623703,0.00809787,-0.00387498,-
 0.00346663,-0.00075187,0.00217654,0.00108346,-0.00013084,-0.00053828,0
 .00565644,-0.00072985,-0.00080921,0.00044216,-0.00002878,-0.00030060,0
 .00058447,0.00022026,-0.00041968,-0.00003099,0.00038674,0.00013927,-0.
 00023491,0.00013614,0.00009667,-0.00011506,-0.00001081,-0.00000002,0.2
 1006448,0.06667289,0.39606145\\-0.00000108,0.00000089,-0.00000268,0.00
 000076,-0.00000009,0.00000868,0.00000295,0.00000032,0.00000503,0.00000
 050,0.00000117,0.00000103,-0.00000669,0.00000117,-0.00001397,-0.000000
 80,-0.00000068,0.00000030,-0.00000060,-0.00000070,0.00000006,0.0000010
 9,-0.00000193,0.00000149,0.00000370,-0.00000072,-0.00000019,0.00000001
 ,-0.00000131,0.00000076,0.00000014,0.00000189,-0.00000051\\\@


 REVOLUTIONS HAVE NEVER LIGHTENED THE BURDEN OF TYRANNY:
 THEY HAVE MERELY SHIFTED IT TO OTHER SHOULDERS.
                                   -- G. B. SHAW (1903)
 Job cpu time:       0 days  1 hours  3 minutes 20.1 seconds.
 Elapsed time:       0 days  0 hours  3 minutes 12.5 seconds.
 File lengths (MBytes):  RWF=   1328 Int=      0 D2E=      0 Chk=     32 Scr=     32
 Normal termination of Gaussian 16 at Thu May 23 12:27:43 2019.
