 Entering Gaussian System, Link 0=g09
 Initial command:
 /shared/apps/gaussian/G09_LINUX_LINDA/g09/l1.exe /home/harms.n/Code/AutoTST/discovery_test/test/Gau-11091.inp -scrdir=/home/harms.n/Code/AutoTST/discovery_test/test/
 Entering Link 1 = /shared/apps/gaussian/G09_LINUX_LINDA/g09/l1.exe PID=     11092.
  
 Copyright (c) 1988,1990,1992,1993,1995,1998,2003,2009,2010,
            Gaussian, Inc.  All Rights Reserved.
  
 This is part of the Gaussian(R) 09 program.  It is based on
 the Gaussian(R) 03 system (copyright 2003, Gaussian, Inc.),
 the Gaussian(R) 98 system (copyright 1998, Gaussian, Inc.),
 the Gaussian(R) 94 system (copyright 1995, Gaussian, Inc.),
 the Gaussian 92(TM) system (copyright 1992, Gaussian, Inc.),
 the Gaussian 90(TM) system (copyright 1990, Gaussian, Inc.),
 the Gaussian 88(TM) system (copyright 1988, Gaussian, Inc.),
 the Gaussian 86(TM) system (copyright 1986, Carnegie Mellon
 University), and the Gaussian 82(TM) system (copyright 1983,
 Carnegie Mellon University). Gaussian is a federally registered
 trademark of Gaussian, Inc.
  
 This software contains proprietary and confidential information,
 including trade secrets, belonging to Gaussian, Inc.
  
 This software is provided under written license and may be
 used, copied, transmitted, or stored only in accord with that
 written license.
  
 The following legend is applicable only to US Government
 contracts under FAR:
  
                    RESTRICTED RIGHTS LEGEND
  
 Use, reproduction and disclosure by the US Government is
 subject to restrictions as set forth in subparagraphs (a)
 and (c) of the Commercial Computer Software - Restricted
 Rights clause in FAR 52.227-19.
  
 Gaussian, Inc.
 340 Quinnipiac St., Bldg. 40, Wallingford CT 06492
  
  
 ---------------------------------------------------------------
 Warning -- This program may not be used in any manner that
 competes with the business of Gaussian, Inc. or will provide
 assistance to any competitor of Gaussian, Inc.  The licensee
 of this program is prohibited from giving any competitor of
 Gaussian, Inc. access to this program.  By using this program,
 the user acknowledges that Gaussian, Inc. is engaged in the
 business of creating and licensing software in the field of
 computational chemistry and represents and warrants to the
 licensee that it is not a competitor of Gaussian, Inc. and that
 it will not use this program in any manner prohibited above.
 ---------------------------------------------------------------
  

 Cite this work as:
 Gaussian 09, Revision B.01,
 M. J. Frisch, G. W. Trucks, H. B. Schlegel, G. E. Scuseria, 
 M. A. Robb, J. R. Cheeseman, G. Scalmani, V. Barone, B. Mennucci, 
 G. A. Petersson, H. Nakatsuji, M. Caricato, X. Li, H. P. Hratchian, 
 A. F. Izmaylov, J. Bloino, G. Zheng, J. L. Sonnenberg, M. Hada, 
 M. Ehara, K. Toyota, R. Fukuda, J. Hasegawa, M. Ishida, T. Nakajima, 
 Y. Honda, O. Kitao, H. Nakai, T. Vreven, J. A. Montgomery, Jr., 
 J. E. Peralta, F. Ogliaro, M. Bearpark, J. J. Heyd, E. Brothers, 
 K. N. Kudin, V. N. Staroverov, T. Keith, R. Kobayashi, J. Normand, 
 K. Raghavachari, A. Rendell, J. C. Burant, S. S. Iyengar, J. Tomasi, 
 M. Cossi, N. Rega, J. M. Millam, M. Klene, J. E. Knox, J. B. Cross, 
 V. Bakken, C. Adamo, J. Jaramillo, R. Gomperts, R. E. Stratmann, 
 O. Yazyev, A. J. Austin, R. Cammi, C. Pomelli, J. W. Ochterski, 
 R. L. Martin, K. Morokuma, V. G. Zakrzewski, G. A. Voth, 
 P. Salvador, J. J. Dannenberg, S. Dapprich, A. D. Daniels, 
 O. Farkas, J. B. Foresman, J. V. Ortiz, J. Cioslowski, 
 and D. J. Fox, Gaussian, Inc., Wallingford CT, 2010.
 
 ******************************************
 Gaussian 09:  EM64L-G09RevB.01 12-Aug-2010
                12-Jun-2018 
 ******************************************
 %nprocshared=20
 Will use up to   20 processors via shared memory.
 %mem=5GB
 ---------------------------------------------------------------
 #p m062x/6-311+g(2df,2p) opt=(verytight,gdiis) freq IOP(2/16=3)
 ---------------------------------------------------------------

 Warning!  Use of Opt=GDIIS is deprecated since it is seldom a good choice.

 1/7=1,14=-1,18=20,19=11,26=3,38=1/1,3;
 2/9=110,12=2,16=3,17=6,18=5,40=1/2;
 3/5=4,6=6,7=214,11=2,16=1,25=1,30=1,71=1,74=-55/1,2,3;
 4//1;
 5/5=2,38=5/2;
 6/7=2,8=2,9=2,10=2,28=1/1;
 7//1,2,3,16;
 1/7=1,14=-1,18=20,19=11/3(2);
 2/9=110,16=3/2;
 99//99;
 2/9=110,16=3/2;
 3/5=4,6=6,7=214,11=2,16=1,25=1,30=1,71=1,74=-55/1,2,3;
 4/5=5,16=3/1;
 5/5=2,38=5/2;
 7//1,2,3,16;
 1/7=1,14=-1,18=20,19=11/3(-5);
 2/9=110,16=3/2;
 6/7=2,8=2,9=2,10=2,19=2,28=1/1;
 99/9=1/99;
 Leave Link    1 at Tue Jun 12 12:07:07 2018, MaxMem=  671088640 cpu:       1.1
 (Enter /shared/apps/gaussian/G09_LINUX_LINDA/g09/l101.exe)
 ------------------------------
 Gaussian input prepared by ASE
 ------------------------------
 Symbolic Z-matrix:
 Charge =  0 Multiplicity = 1
 C                     0.8685   -0.6163   -0.2345 
 C                    -0.388    -0.187    -0.1111 
 C                     2.0111    0.2639    0.0764 
 C                    -1.5396   -1.1409    0.0189 
 C                    -0.7702    1.244    -0.1203 
 H                     1.0295   -1.6924   -0.124 
 H                     1.8642    0.7167    1.0893 
 H                     2.199     1.037    -0.6938 
 H                     2.9536   -0.3148    0.1596 
 H                    -2.2983   -0.7587    0.738 
 H                    -1.1094   -2.0793    0.4158 
 H                    -2.0519   -1.3211   -0.9377 
 H                    -1.3739    1.5084   -1.0187 
 H                     0.0631    1.9422    0.0013 
 H                    -1.4577    1.3983    0.7407 
 
 NAtoms=     15 NQM=     15 NQMF=      0 NMic=      0 NMicF=      0 NTot=     15.
                    Isotopes and Nuclear Properties:
 (Nuclear quadrupole moments (NQMom) in fm**2, nuclear magnetic moments (NMagM)
  in nuclear magnetons)

  Atom         1           2           3           4           5           6           7           8           9          10
 IAtWgt=          12          12          12          12          12           1           1           1           1           1
 AtmWgt=  12.0000000  12.0000000  12.0000000  12.0000000  12.0000000   1.0078250   1.0078250   1.0078250   1.0078250   1.0078250
 NucSpn=           0           0           0           0           0           1           1           1           1           1
 AtZEff=   0.0000000   0.0000000   0.0000000   0.0000000   0.0000000   0.0000000   0.0000000   0.0000000   0.0000000   0.0000000
 NQMom=    0.0000000   0.0000000   0.0000000   0.0000000   0.0000000   0.0000000   0.0000000   0.0000000   0.0000000   0.0000000
 NMagM=    0.0000000   0.0000000   0.0000000   0.0000000   0.0000000   2.7928460   2.7928460   2.7928460   2.7928460   2.7928460

  Atom        11          12          13          14          15
 IAtWgt=           1           1           1           1           1
 AtmWgt=   1.0078250   1.0078250   1.0078250   1.0078250   1.0078250
 NucSpn=           1           1           1           1           1
 AtZEff=   0.0000000   0.0000000   0.0000000   0.0000000   0.0000000
 NQMom=    0.0000000   0.0000000   0.0000000   0.0000000   0.0000000
 NMagM=    2.7928460   2.7928460   2.7928460   2.7928460   2.7928460
 Leave Link  101 at Tue Jun 12 12:07:07 2018, MaxMem=  671088640 cpu:       1.2
 (Enter /shared/apps/gaussian/G09_LINUX_LINDA/g09/l103.exe)

 GradGradGradGradGradGradGradGradGradGradGradGradGradGradGradGradGradGrad
 Berny optimization.
 Initialization pass.
                           ----------------------------
                           !    Initial Parameters    !
                           ! (Angstroms and Degrees)  !
 --------------------------                            --------------------------
 ! Name  Definition              Value          Derivative Info.                !
 --------------------------------------------------------------------------------
 ! R1    R(1,2)                  1.3335         estimate D2E/DX2                !
 ! R2    R(1,3)                  1.4754         estimate D2E/DX2                !
 ! R3    R(1,6)                  1.0937         estimate D2E/DX2                !
 ! R4    R(2,4)                  1.501          estimate D2E/DX2                !
 ! R5    R(2,5)                  1.4812         estimate D2E/DX2                !
 ! R6    R(3,7)                  1.1192         estimate D2E/DX2                !
 ! R7    R(3,8)                  1.1073         estimate D2E/DX2                !
 ! R8    R(3,9)                  1.1091         estimate D2E/DX2                !
 ! R9    R(4,10)                 1.113          estimate D2E/DX2                !
 ! R10   R(4,11)                 1.106          estimate D2E/DX2                !
 ! R11   R(4,12)                 1.1            estimate D2E/DX2                !
 ! R12   R(5,13)                 1.1142         estimate D2E/DX2                !
 ! R13   R(5,14)                 1.0939         estimate D2E/DX2                !
 ! R14   R(5,15)                 1.1126         estimate D2E/DX2                !
 ! A1    A(2,1,3)              121.2065         estimate D2E/DX2                !
 ! A2    A(2,1,6)              116.4944         estimate D2E/DX2                !
 ! A3    A(3,1,6)              116.852          estimate D2E/DX2                !
 ! A4    A(1,2,4)              121.7576         estimate D2E/DX2                !
 ! A5    A(1,2,5)              123.6125         estimate D2E/DX2                !
 ! A6    A(4,2,5)              114.6165         estimate D2E/DX2                !
 ! A7    A(1,3,7)              109.2941         estimate D2E/DX2                !
 ! A8    A(1,3,8)              113.6622         estimate D2E/DX2                !
 ! A9    A(1,3,9)              111.2609         estimate D2E/DX2                !
 ! A10   A(7,3,8)              111.6724         estimate D2E/DX2                !
 ! A11   A(7,3,9)              104.7585         estimate D2E/DX2                !
 ! A12   A(8,3,9)              105.7988         estimate D2E/DX2                !
 ! A13   A(2,4,10)             111.144          estimate D2E/DX2                !
 ! A14   A(2,4,11)             105.7753         estimate D2E/DX2                !
 ! A15   A(2,4,12)             112.7123         estimate D2E/DX2                !
 ! A16   A(10,4,11)            108.9445         estimate D2E/DX2                !
 ! A17   A(10,4,12)            107.4961         estimate D2E/DX2                !
 ! A18   A(11,4,12)            110.7471         estimate D2E/DX2                !
 ! A19   A(2,5,13)             111.9669         estimate D2E/DX2                !
 ! A20   A(2,5,14)             114.7953         estimate D2E/DX2                !
 ! A21   A(2,5,15)             106.7763         estimate D2E/DX2                !
 ! A22   A(13,5,14)            110.5426         estimate D2E/DX2                !
 ! A23   A(13,5,15)            104.8489         estimate D2E/DX2                !
 ! A24   A(14,5,15)            107.2282         estimate D2E/DX2                !
 ! D1    D(3,1,2,4)           -159.7526         estimate D2E/DX2                !
 ! D2    D(3,1,2,5)             21.6531         estimate D2E/DX2                !
 ! D3    D(6,1,2,4)             -6.6236         estimate D2E/DX2                !
 ! D4    D(6,1,2,5)            174.7822         estimate D2E/DX2                !
 ! D5    D(2,1,3,7)             50.9237         estimate D2E/DX2                !
 ! D6    D(2,1,3,8)            -74.5682         estimate D2E/DX2                !
 ! D7    D(2,1,3,9)            166.1271         estimate D2E/DX2                !
 ! D8    D(6,1,3,7)           -102.1141         estimate D2E/DX2                !
 ! D9    D(6,1,3,8)            132.394          estimate D2E/DX2                !
 ! D10   D(6,1,3,9)             13.0892         estimate D2E/DX2                !
 ! D11   D(1,2,4,10)           141.7471         estimate D2E/DX2                !
 ! D12   D(1,2,4,11)            23.6499         estimate D2E/DX2                !
 ! D13   D(1,2,4,12)           -97.5013         estimate D2E/DX2                !
 ! D14   D(5,2,4,10)           -39.5406         estimate D2E/DX2                !
 ! D15   D(5,2,4,11)          -157.6378         estimate D2E/DX2                !
 ! D16   D(5,2,4,12)            81.211          estimate D2E/DX2                !
 ! D17   D(1,2,5,13)           113.2777         estimate D2E/DX2                !
 ! D18   D(1,2,5,14)           -13.817          estimate D2E/DX2                !
 ! D19   D(1,2,5,15)          -132.5041         estimate D2E/DX2                !
 ! D20   D(4,2,5,13)           -65.4076         estimate D2E/DX2                !
 ! D21   D(4,2,5,14)           167.4978         estimate D2E/DX2                !
 ! D22   D(4,2,5,15)            48.8107         estimate D2E/DX2                !
 --------------------------------------------------------------------------------
 Trust Radius=3.00D-01 FncErr=1.00D-07 GrdErr=1.00D-06
 Number of steps in this run=     70 maximum allowed number of steps=    100.
 GradGradGradGradGradGradGradGradGradGradGradGradGradGradGradGradGradGrad

 Leave Link  103 at Tue Jun 12 12:07:07 2018, MaxMem=  671088640 cpu:       0.2
 (Enter /shared/apps/gaussian/G09_LINUX_LINDA/g09/l202.exe)
                          Input orientation:                          
 ---------------------------------------------------------------------
 Center     Atomic      Atomic             Coordinates (Angstroms)
 Number     Number       Type             X           Y           Z
 ---------------------------------------------------------------------
      1          6           0        0.868500   -0.616300   -0.234500
      2          6           0       -0.388000   -0.187000   -0.111100
      3          6           0        2.011100    0.263900    0.076400
      4          6           0       -1.539600   -1.140900    0.018900
      5          6           0       -0.770200    1.244000   -0.120300
      6          1           0        1.029500   -1.692400   -0.124000
      7          1           0        1.864200    0.716700    1.089300
      8          1           0        2.199000    1.037000   -0.693800
      9          1           0        2.953600   -0.314800    0.159600
     10          1           0       -2.298300   -0.758700    0.738000
     11          1           0       -1.109400   -2.079300    0.415800
     12          1           0       -2.051900   -1.321100   -0.937700
     13          1           0       -1.373900    1.508400   -1.018700
     14          1           0        0.063100    1.942200    0.001300
     15          1           0       -1.457700    1.398300    0.740700
 ---------------------------------------------------------------------
                    Distance matrix (angstroms):
                    1          2          3          4          5
     1  C    0.000000
     2  C    1.333536   0.000000
     3  C    1.475448   2.448295   0.000000
     4  C    2.477572   1.501002   3.818932   0.000000
     5  C    2.481752   1.481190   2.955489   2.509801   0.000000
     6  H    1.093674   2.067777   2.197910   2.631510   3.444035
     7  H    2.126206   2.707404   1.119184   4.022722   2.946395
     8  H    2.171310   2.920665   1.107338   4.385011   3.031155
     9  H    2.143329   3.354982   1.109109   4.570677   4.046590
    10  H    3.315819   2.167270   4.478209   1.113017   2.661311
    11  H    2.544670   2.092568   3.917052   1.105982   3.383309
    12  H    3.085445   2.176698   4.477566   1.100003   2.981717
    13  H    3.187111   2.161046   3.769118   2.850063   1.114219
    14  H    2.692618   2.179362   2.572360   3.474833   1.093919
    15  H    3.228132   2.093561   3.709546   2.641068   1.112558
                    6          7          8          9         10
     6  H    0.000000
     7  H    2.823576   0.000000
     8  H    3.023578   1.842316   0.000000
     9  H    2.383353   1.764972   1.767788   0.000000
    10  H    3.562175   4.430194   5.049782   5.302268   0.000000
    11  H    2.239636   4.136848   4.678466   4.437011   1.805902
    12  H    3.208582   4.857695   4.867266   5.222235   1.784650
    13  H    4.101456   3.944077   3.618479   4.841457   3.013346
    14  H    3.762970   2.435068   2.421698   3.670708   3.662485
    15  H    4.060332   3.408976   3.944589   4.767804   2.315009
                   11         12         13         14         15
    11  H    0.000000
    12  H    1.815251   0.000000
    13  H    3.872898   2.910724   0.000000
    14  H    4.209398   4.000509   1.814814   0.000000
    15  H    3.510068   3.250421   1.764832   1.776337   0.000000
 Stoichiometry    C5H10
 Framework group  C1[X(C5H10)]
 Deg. of freedom    39
 Full point group                 C1      NOp   1
 Largest Abelian subgroup         C1      NOp   1
 Largest concise Abelian subgroup C1      NOp   1
                         Standard orientation:                         
 ---------------------------------------------------------------------
 Center     Atomic      Atomic             Coordinates (Angstroms)
 Number     Number       Type             X           Y           Z
 ---------------------------------------------------------------------
      1          6           0        0.710736   -0.717348   -0.215840
      2          6           0       -0.430041   -0.044745   -0.059156
      3          6           0        2.013230   -0.094994    0.089335
      4          6           0       -1.749503   -0.747590    0.075144
      5          6           0       -0.513133    1.433880   -0.032928
      6          1           0        0.651078   -1.805976   -0.129508
      7          1           0        1.977281    0.354702    1.113569
      8          1           0        2.342550    0.641391   -0.669271
      9          1           0        2.819419   -0.854833    0.142510
     10          1           0       -2.403300   -0.235954    0.816483
     11          1           0       -1.513162   -1.762716    0.445090
     12          1           0       -2.302532   -0.797848   -0.874403
     13          1           0       -1.064260    1.836055   -0.913836
     14          1           0        0.446597    1.945271    0.085632
     15          1           0       -1.141405    1.704692    0.844409
 ---------------------------------------------------------------------
 Rotational constants (GHZ):      8.1625930      3.7007094      2.7018283
 Leave Link  202 at Tue Jun 12 12:07:07 2018, MaxMem=  671088640 cpu:       0.8
 (Enter /shared/apps/gaussian/G09_LINUX_LINDA/g09/l301.exe)
 Standard basis: 6-311+G(2df,2p) (5D, 7F)
 Ernie: Thresh=  0.10000D-02 Tol=  0.10000D-05 Strict=F.
 There are   260 symmetry adapted basis functions of A   symmetry.
 Integral buffers will be    131072 words long.
 Raffenetti 2 integral format.
 Two-electron integral symmetry is turned on.
   260 basis functions,   370 primitive gaussians,   285 cartesian basis functions
    20 alpha electrons       20 beta electrons
       nuclear repulsion energy       176.3443346312 Hartrees.
 IExCor= 4336 DFT=T Ex+Corr=M062X ExCW=0 ScaHFX=  0.540000
 ScaDFX=  1.000000  1.000000  1.000000  1.000000 ScalE2=  1.000000  1.000000
 IRadAn=      0 IRanWt=     -1 IRanGd=            0 ICorTp=0
 NAtoms=   15 NActive=   15 NUniq=   15 SFac= 1.00D+00 NAtFMM=   50 NAOKFM=F Big=F
 Leave Link  301 at Tue Jun 12 12:07:08 2018, MaxMem=  671088640 cpu:       1.0
 (Enter /shared/apps/gaussian/G09_LINUX_LINDA/g09/l302.exe)
 NPDir=0 NMtPBC=     1 NCelOv=     1 NCel=       1 NClECP=     1 NCelD=      1
         NCelK=      1 NCelE2=     1 NClLst=     1 CellRange=     0.0.
 One-electron integrals computed using PRISM.
 NBasis=   260 RedAO= T  NBF=   260
 NBsUse=   260 1.00D-06 NBFU=   260
 Precomputing XC quadrature grid using
 IXCGrd= 2 IRadAn=           0 IRanWt=          -1 IRanGd=           0 AccXCQ= 0.00D+00.
 NRdTot=     967 NPtTot=      122056 NUsed=      129033 NTot=      129065
 NSgBfM=   285   285   285   285   285 NAtAll=    15    15.
 Leave Link  302 at Tue Jun 12 12:07:09 2018, MaxMem=  671088640 cpu:      13.2
 (Enter /shared/apps/gaussian/G09_LINUX_LINDA/g09/l303.exe)
 DipDrv:  MaxL=1.
 Leave Link  303 at Tue Jun 12 12:07:10 2018, MaxMem=  671088640 cpu:       3.3
 (Enter /shared/apps/gaussian/G09_LINUX_LINDA/g09/l401.exe)
 Harris functional with IExCor= 1009 diagonalized for initial guess.
 ExpMin= 4.38D-02 ExpMax= 4.56D+03 ExpMxC= 6.82D+02 IAcc=2 IRadAn=         0 AccDes= 0.00D+00
 HarFok:  IExCor= 1009 AccDes= 0.00D+00 IRadAn=         0 IDoV= 1
 ScaDFX=  1.000000  1.000000  1.000000  1.000000
 FoFCou: FMM=F IPFlag=           0 FMFlag=      100000 FMFlg1=           0
         NFxFlg=           0 DoJE=T BraDBF=F KetDBF=T FulRan=T
         Omega=  0.000000  0.000000  1.000000  0.000000  0.000000 ICntrl=     500 IOpCl=  0
         NMat0=    1 NMatS0=    1 NMatT0=    0 NMatD0=    1 NMtDS0=    0 NMtDT0=    0
         I1Cent=           4 NGrid=           0.
 Petite list used in FoFCou.
 Harris En= -196.475101426419    
 Initial guess orbital symmetries:
       Occupied  (A) (A) (A) (A) (A) (A) (A) (A) (A) (A) (A) (A)
                 (A) (A) (A) (A) (A) (A) (A) (A)
       Virtual   (A) (A) (A) (A) (A) (A) (A) (A) (A) (A) (A) (A)
                 (A) (A) (A) (A) (A) (A) (A) (A) (A) (A) (A) (A)
                 (A) (A) (A) (A) (A) (A) (A) (A) (A) (A) (A) (A)
                 (A) (A) (A) (A) (A) (A) (A) (A) (A) (A) (A) (A)
                 (A) (A) (A) (A) (A) (A) (A) (A) (A) (A) (A) (A)
                 (A) (A) (A) (A) (A) (A) (A) (A) (A) (A) (A) (A)
                 (A) (A) (A) (A) (A) (A) (A) (A) (A) (A) (A) (A)
                 (A) (A) (A) (A) (A) (A) (A) (A) (A) (A) (A) (A)
                 (A) (A) (A) (A) (A) (A) (A) (A) (A) (A) (A) (A)
                 (A) (A) (A) (A) (A) (A) (A) (A) (A) (A) (A) (A)
                 (A) (A) (A) (A) (A) (A) (A) (A) (A) (A) (A) (A)
                 (A) (A) (A) (A) (A) (A) (A) (A) (A) (A) (A) (A)
                 (A) (A) (A) (A) (A) (A) (A) (A) (A) (A) (A) (A)
                 (A) (A) (A) (A) (A) (A) (A) (A) (A) (A) (A) (A)
                 (A) (A) (A) (A) (A) (A) (A) (A) (A) (A) (A) (A)
                 (A) (A) (A) (A) (A) (A) (A) (A) (A) (A) (A) (A)
                 (A) (A) (A) (A) (A) (A) (A) (A) (A) (A) (A) (A)
                 (A) (A) (A) (A) (A) (A) (A) (A) (A) (A) (A) (A)
                 (A) (A) (A) (A) (A) (A) (A) (A) (A) (A) (A) (A)
                 (A) (A) (A) (A) (A) (A) (A) (A) (A) (A) (A) (A)
 The electronic state of the initial guess is 1-A.
 Leave Link  401 at Tue Jun 12 12:07:14 2018, MaxMem=  671088640 cpu:      40.2
 (Enter /shared/apps/gaussian/G09_LINUX_LINDA/g09/l502.exe)
 Closed shell SCF:
 Requested convergence on RMS density matrix=1.00D-08 within 128 cycles.
 Requested convergence on MAX density matrix=1.00D-06.
 Requested convergence on             energy=1.00D-06.
 No special actions if energy rises.
 Using DIIS extrapolation, IDIIS=  1040.
 Integral symmetry usage will be decided dynamically.
       128885 words used for storage of precomputed grid.
 IEnd=      398496 IEndB=      398496 NGot=   671088640 MDV=   670788295
 LenX=   670788295 LenY=   670706629
 Fock matrices will be formed incrementally for  20 cycles.

 Cycle   1  Pass 1  IDiag  1:
 FoFCou: FMM=F IPFlag=           0 FMFlag=      100000 FMFlg1=           0
         NFxFlg=           0 DoJE=F BraDBF=F KetDBF=F FulRan=T
         Omega=  0.000000  0.000000  1.000000  0.000000  0.000000 ICntrl=       0 IOpCl=  0
         NMat0=    1 NMatS0=    1 NMatT0=    0 NMatD0=    1 NMtDS0=    0 NMtDT0=    0
         I1Cent=           0 NGrid=           0.
 Symmetry not used in FoFCou.
 E= -196.256047598873    
 DIIS: error= 3.45D-02 at cycle   1 NSaved=   1.
 NSaved= 1 IEnMin= 1 EnMin= -196.256047598873     IErMin= 1 ErrMin= 3.45D-02
 ErrMax= 3.45D-02 EMaxC= 1.00D-01 BMatC= 2.39D-01 BMatP= 2.39D-01
 IDIUse=3 WtCom= 6.55D-01 WtEn= 3.45D-01
 Coeff-Com:  0.100D+01
 Coeff-En:   0.100D+01
 Coeff:      0.100D+01
 Gap=     0.330 Goal=   None    Shift=    0.000
 GapD=    0.330 DampG=1.000 DampE=0.500 DampFc=0.5000 IDamp=-1.
 Damping current iteration by 5.00D-01
 RMSDP=4.02D-03 MaxDP=1.55D-01              OVMax= 1.69D-01

 Cycle   2  Pass 1  IDiag  1:
 RMSU=  1.32D-03    CP:  9.23D-01
 E= -196.372892748858     Delta-E=       -0.116845149986 Rises=F Damp=T
 DIIS: error= 5.18D-03 at cycle   2 NSaved=   2.
 NSaved= 2 IEnMin= 2 EnMin= -196.372892748858     IErMin= 2 ErrMin= 5.18D-03
 ErrMax= 5.18D-03 EMaxC= 1.00D-01 BMatC= 1.19D-02 BMatP= 2.39D-01
 IDIUse=3 WtCom= 9.48D-01 WtEn= 5.18D-02
 Coeff-Com: -0.105D+00 0.111D+01
 Coeff-En:   0.000D+00 0.100D+01
 Coeff:     -0.999D-01 0.110D+01
 Gap=     0.310 Goal=   None    Shift=    0.000
 RMSDP=1.31D-03 MaxDP=3.64D-02 DE=-1.17D-01 OVMax= 8.95D-02

 Cycle   3  Pass 1  IDiag  1:
 RMSU=  9.24D-04    CP:  9.29D-01  9.60D-01
 E= -196.482001649565     Delta-E=       -0.109108900706 Rises=F Damp=F
 DIIS: error= 2.55D-03 at cycle   3 NSaved=   3.
 NSaved= 3 IEnMin= 3 EnMin= -196.482001649565     IErMin= 3 ErrMin= 2.55D-03
 ErrMax= 2.55D-03 EMaxC= 1.00D-01 BMatC= 1.22D-03 BMatP= 1.19D-02
 IDIUse=3 WtCom= 9.75D-01 WtEn= 2.55D-02
 Coeff-Com: -0.539D-01 0.216D+00 0.837D+00
 Coeff-En:   0.000D+00 0.000D+00 0.100D+01
 Coeff:     -0.525D-01 0.211D+00 0.842D+00
 Gap=     0.296 Goal=   None    Shift=    0.000
 RMSDP=2.20D-04 MaxDP=1.10D-02 DE=-1.09D-01 OVMax= 1.17D-02

 Cycle   4  Pass 1  IDiag  1:
 RMSU=  1.17D-04    CP:  9.21D-01  1.02D+00  9.74D-01
 E= -196.483027932423     Delta-E=       -0.001026282858 Rises=F Damp=F
 DIIS: error= 1.11D-03 at cycle   4 NSaved=   4.
 NSaved= 4 IEnMin= 4 EnMin= -196.483027932423     IErMin= 4 ErrMin= 1.11D-03
 ErrMax= 1.11D-03 EMaxC= 1.00D-01 BMatC= 2.80D-04 BMatP= 1.22D-03
 IDIUse=3 WtCom= 9.89D-01 WtEn= 1.11D-02
 Coeff-Com: -0.180D-01 0.492D-01 0.366D+00 0.602D+00
 Coeff-En:   0.000D+00 0.000D+00 0.496D-01 0.950D+00
 Coeff:     -0.178D-01 0.486D-01 0.363D+00 0.606D+00
 Gap=     0.299 Goal=   None    Shift=    0.000
 RMSDP=9.32D-05 MaxDP=6.06D-03 DE=-1.03D-03 OVMax= 6.45D-03

 Cycle   5  Pass 1  IDiag  1:
 RMSU=  5.32D-05    CP:  9.21D-01  1.00D+00  9.80D-01  8.18D-01
 E= -196.483278551745     Delta-E=       -0.000250619322 Rises=F Damp=F
 DIIS: error= 2.45D-04 at cycle   5 NSaved=   5.
 NSaved= 5 IEnMin= 5 EnMin= -196.483278551745     IErMin= 5 ErrMin= 2.45D-04
 ErrMax= 2.45D-04 EMaxC= 1.00D-01 BMatC= 1.66D-05 BMatP= 2.80D-04
 IDIUse=3 WtCom= 9.98D-01 WtEn= 2.45D-03
 Coeff-Com: -0.313D-02 0.518D-02 0.941D-01 0.252D+00 0.652D+00
 Coeff-En:   0.000D+00 0.000D+00 0.000D+00 0.000D+00 0.100D+01
 Coeff:     -0.312D-02 0.516D-02 0.939D-01 0.251D+00 0.653D+00
 Gap=     0.299 Goal=   None    Shift=    0.000
 RMSDP=2.01D-05 MaxDP=7.38D-04 DE=-2.51D-04 OVMax= 2.13D-03

 Cycle   6  Pass 1  IDiag  1:
 RMSU=  1.27D-05    CP:  9.21D-01  9.96D-01  9.82D-01  8.45D-01  9.99D-01
 E= -196.483292113643     Delta-E=       -0.000013561898 Rises=F Damp=F
 DIIS: error= 8.04D-05 at cycle   6 NSaved=   6.
 NSaved= 6 IEnMin= 6 EnMin= -196.483292113643     IErMin= 6 ErrMin= 8.04D-05
 ErrMax= 8.04D-05 EMaxC= 1.00D-01 BMatC= 2.09D-06 BMatP= 1.66D-05
 IDIUse=1 WtCom= 1.00D+00 WtEn= 0.00D+00
 Coeff-Com:  0.404D-03-0.255D-02 0.101D-01 0.649D-01 0.310D+00 0.618D+00
 Coeff:      0.404D-03-0.255D-02 0.101D-01 0.649D-01 0.310D+00 0.618D+00
 Gap=     0.299 Goal=   None    Shift=    0.000
 RMSDP=8.32D-06 MaxDP=2.41D-04 DE=-1.36D-05 OVMax= 7.20D-04

 Cycle   7  Pass 1  IDiag  1:
 RMSU=  4.35D-06    CP:  9.22D-01  9.95D-01  9.83D-01  8.51D-01  1.06D+00
                    CP:  9.80D-01
 E= -196.483294172833     Delta-E=       -0.000002059190 Rises=F Damp=F
 DIIS: error= 1.68D-05 at cycle   7 NSaved=   7.
 NSaved= 7 IEnMin= 7 EnMin= -196.483294172833     IErMin= 7 ErrMin= 1.68D-05
 ErrMax= 1.68D-05 EMaxC= 1.00D-01 BMatC= 1.13D-07 BMatP= 2.09D-06
 IDIUse=1 WtCom= 1.00D+00 WtEn= 0.00D+00
 Coeff-Com:  0.628D-03-0.157D-02-0.115D-01-0.191D-01-0.168D-01 0.176D+00
 Coeff-Com:  0.872D+00
 Coeff:      0.628D-03-0.157D-02-0.115D-01-0.191D-01-0.168D-01 0.176D+00
 Coeff:      0.872D+00
 Gap=     0.299 Goal=   None    Shift=    0.000
 RMSDP=3.82D-06 MaxDP=2.36D-04 DE=-2.06D-06 OVMax= 1.22D-04

 Cycle   8  Pass 1  IDiag  1:
 RMSU=  1.43D-06    CP:  9.22D-01  9.94D-01  9.84D-01  8.56D-01  1.07D+00
                    CP:  1.08D+00  1.13D+00
 E= -196.483294300861     Delta-E=       -0.000000128028 Rises=F Damp=F
 DIIS: error= 3.18D-06 at cycle   8 NSaved=   8.
 NSaved= 8 IEnMin= 8 EnMin= -196.483294300861     IErMin= 8 ErrMin= 3.18D-06
 ErrMax= 3.18D-06 EMaxC= 1.00D-01 BMatC= 2.04D-09 BMatP= 1.13D-07
 IDIUse=1 WtCom= 1.00D+00 WtEn= 0.00D+00
 Coeff-Com:  0.802D-04-0.197D-03-0.241D-02-0.536D-02-0.124D-01 0.174D-01
 Coeff-Com:  0.172D+00 0.830D+00
 Coeff:      0.802D-04-0.197D-03-0.241D-02-0.536D-02-0.124D-01 0.174D-01
 Coeff:      0.172D+00 0.830D+00
 Gap=     0.299 Goal=   None    Shift=    0.000
 RMSDP=5.37D-07 MaxDP=4.44D-05 DE=-1.28D-07 OVMax= 1.72D-05

 Cycle   9  Pass 1  IDiag  1:
 RMSU=  2.43D-07    CP:  9.22D-01  9.94D-01  9.84D-01  8.56D-01  1.07D+00
                    CP:  1.09D+00  1.17D+00  1.09D+00
 E= -196.483294303175     Delta-E=       -0.000000002314 Rises=F Damp=F
 DIIS: error= 9.02D-07 at cycle   9 NSaved=   9.
 NSaved= 9 IEnMin= 9 EnMin= -196.483294303175     IErMin= 9 ErrMin= 9.02D-07
 ErrMax= 9.02D-07 EMaxC= 1.00D-01 BMatC= 1.60D-10 BMatP= 2.04D-09
 IDIUse=1 WtCom= 1.00D+00 WtEn= 0.00D+00
 Coeff-Com: -0.176D-04 0.374D-04 0.142D-04-0.324D-03-0.206D-02-0.347D-02
 Coeff-Com: -0.388D-02 0.202D+00 0.808D+00
 Coeff:     -0.176D-04 0.374D-04 0.142D-04-0.324D-03-0.206D-02-0.347D-02
 Coeff:     -0.388D-02 0.202D+00 0.808D+00
 Gap=     0.299 Goal=   None    Shift=    0.000
 RMSDP=1.93D-07 MaxDP=2.30D-05 DE=-2.31D-09 OVMax= 2.91D-06

 Cycle  10  Pass 1  IDiag  1:
 RMSU=  4.58D-08    CP:  9.22D-01  9.94D-01  9.84D-01  8.56D-01  1.07D+00
                    CP:  1.09D+00  1.17D+00  1.15D+00  1.07D+00
 E= -196.483294303334     Delta-E=       -0.000000000159 Rises=F Damp=F
 DIIS: error= 3.02D-07 at cycle  10 NSaved=  10.
 NSaved=10 IEnMin=10 EnMin= -196.483294303334     IErMin=10 ErrMin= 3.02D-07
 ErrMax= 3.02D-07 EMaxC= 1.00D-01 BMatC= 1.67D-11 BMatP= 1.60D-10
 IDIUse=1 WtCom= 1.00D+00 WtEn= 0.00D+00
 Coeff-Com: -0.102D-04 0.234D-04 0.128D-03 0.147D-03-0.169D-03-0.191D-02
 Coeff-Com: -0.108D-01 0.264D-01 0.283D+00 0.703D+00
 Coeff:     -0.102D-04 0.234D-04 0.128D-03 0.147D-03-0.169D-03-0.191D-02
 Coeff:     -0.108D-01 0.264D-01 0.283D+00 0.703D+00
 Gap=     0.299 Goal=   None    Shift=    0.000
 RMSDP=3.60D-08 MaxDP=3.73D-06 DE=-1.59D-10 OVMax= 1.04D-06

 Cycle  11  Pass 1  IDiag  1:
 RMSU=  1.44D-08    CP:  9.22D-01  9.94D-01  9.84D-01  8.56D-01  1.07D+00
                    CP:  1.09D+00  1.17D+00  1.16D+00  1.10D+00  1.09D+00
 E= -196.483294303350     Delta-E=       -0.000000000017 Rises=F Damp=F
 DIIS: error= 3.82D-08 at cycle  11 NSaved=  11.
 NSaved=11 IEnMin=11 EnMin= -196.483294303350     IErMin=11 ErrMin= 3.82D-08
 ErrMax= 3.82D-08 EMaxC= 1.00D-01 BMatC= 6.50D-13 BMatP= 1.67D-11
 IDIUse=1 WtCom= 1.00D+00 WtEn= 0.00D+00
 Coeff-Com:  0.859D-06-0.123D-05 0.560D-05 0.185D-04 0.457D-04 0.149D-03
 Coeff-Com: -0.711D-03-0.113D-01-0.329D-01 0.945D-01 0.950D+00
 Coeff:      0.859D-06-0.123D-05 0.560D-05 0.185D-04 0.457D-04 0.149D-03
 Coeff:     -0.711D-03-0.113D-01-0.329D-01 0.945D-01 0.950D+00
 Gap=     0.299 Goal=   None    Shift=    0.000
 RMSDP=1.11D-08 MaxDP=3.39D-07 DE=-1.68D-11 OVMax= 4.72D-07

 Cycle  12  Pass 1  IDiag  1:
 RMSU=  4.58D-09    CP:  9.22D-01  9.94D-01  9.84D-01  8.56D-01  1.07D+00
                    CP:  1.09D+00  1.17D+00  1.16D+00  1.11D+00  1.17D+00
                    CP:  1.17D+00
 E= -196.483294303355     Delta-E=       -0.000000000004 Rises=F Damp=F
 DIIS: error= 1.09D-08 at cycle  12 NSaved=  12.
 NSaved=12 IEnMin=12 EnMin= -196.483294303355     IErMin=12 ErrMin= 1.09D-08
 ErrMax= 1.09D-08 EMaxC= 1.00D-01 BMatC= 2.99D-14 BMatP= 6.50D-13
 IDIUse=1 WtCom= 1.00D+00 WtEn= 0.00D+00
 Coeff-Com:  0.499D-06-0.101D-05-0.316D-05-0.639D-07 0.628D-05 0.112D-03
 Coeff-Com:  0.214D-03-0.229D-02-0.148D-01-0.112D-01 0.110D+00 0.918D+00
 Coeff:      0.499D-06-0.101D-05-0.316D-05-0.639D-07 0.628D-05 0.112D-03
 Coeff:      0.214D-03-0.229D-02-0.148D-01-0.112D-01 0.110D+00 0.918D+00
 Gap=     0.299 Goal=   None    Shift=    0.000
 RMSDP=2.47D-09 MaxDP=1.00D-07 DE=-4.26D-12 OVMax= 8.94D-08

 SCF Done:  E(RM062X) =  -196.483294303     A.U. after   12 cycles
             Convg  =    0.2468D-08             -V/T =  2.0049
 KE= 1.955188122137D+02 PE=-8.072751284306D+02 EE= 2.389286872823D+02
 Leave Link  502 at Tue Jun 12 12:08:48 2018, MaxMem=  671088640 cpu:     942.6
 (Enter /shared/apps/gaussian/G09_LINUX_LINDA/g09/l601.exe)
 Copying SCF densities to generalized density rwf, IOpCl= 0 IROHF=0.

 **********************************************************************

            Population analysis using the SCF density.

 **********************************************************************

 Orbital symmetries:
       Occupied  (A) (A) (A) (A) (A) (A) (A) (A) (A) (A) (A) (A)
                 (A) (A) (A) (A) (A) (A) (A) (A)
       Virtual   (A) (A) (A) (A) (A) (A) (A) (A) (A) (A) (A) (A)
                 (A) (A) (A) (A) (A) (A) (A) (A) (A) (A) (A) (A)
                 (A) (A) (A) (A) (A) (A) (A) (A) (A) (A) (A) (A)
                 (A) (A) (A) (A) (A) (A) (A) (A) (A) (A) (A) (A)
                 (A) (A) (A) (A) (A) (A) (A) (A) (A) (A) (A) (A)
                 (A) (A) (A) (A) (A) (A) (A) (A) (A) (A) (A) (A)
                 (A) (A) (A) (A) (A) (A) (A) (A) (A) (A) (A) (A)
                 (A) (A) (A) (A) (A) (A) (A) (A) (A) (A) (A) (A)
                 (A) (A) (A) (A) (A) (A) (A) (A) (A) (A) (A) (A)
                 (A) (A) (A) (A) (A) (A) (A) (A) (A) (A) (A) (A)
                 (A) (A) (A) (A) (A) (A) (A) (A) (A) (A) (A) (A)
                 (A) (A) (A) (A) (A) (A) (A) (A) (A) (A) (A) (A)
                 (A) (A) (A) (A) (A) (A) (A) (A) (A) (A) (A) (A)
                 (A) (A) (A) (A) (A) (A) (A) (A) (A) (A) (A) (A)
                 (A) (A) (A) (A) (A) (A) (A) (A) (A) (A) (A) (A)
                 (A) (A) (A) (A) (A) (A) (A) (A) (A) (A) (A) (A)
                 (A) (A) (A) (A) (A) (A) (A) (A) (A) (A) (A) (A)
                 (A) (A) (A) (A) (A) (A) (A) (A) (A) (A) (A) (A)
                 (A) (A) (A) (A) (A) (A) (A) (A) (A) (A) (A) (A)
                 (A) (A) (A) (A) (A) (A) (A) (A) (A) (A) (A) (A)
 The electronic state is 1-A.
 Alpha  occ. eigenvalues --  -10.53458 -10.52810 -10.52765 -10.52702 -10.51998
 Alpha  occ. eigenvalues --   -0.91895  -0.82696  -0.77981  -0.71487  -0.58237
 Alpha  occ. eigenvalues --   -0.52965  -0.50484  -0.50338  -0.47013  -0.44659
 Alpha  occ. eigenvalues --   -0.43834  -0.42491  -0.40667  -0.38426  -0.28413
 Alpha virt. eigenvalues --    0.01457   0.02859   0.03402   0.03448   0.04948
 Alpha virt. eigenvalues --    0.05314   0.05751   0.07002   0.07434   0.08324
 Alpha virt. eigenvalues --    0.09208   0.10262   0.11960   0.12227   0.13087
 Alpha virt. eigenvalues --    0.14502   0.15401   0.16074   0.17586   0.18323
 Alpha virt. eigenvalues --    0.19798   0.20827   0.21364   0.21667   0.22370
 Alpha virt. eigenvalues --    0.23754   0.24839   0.25744   0.27265   0.28447
 Alpha virt. eigenvalues --    0.29295   0.29989   0.32081   0.36623   0.39770
 Alpha virt. eigenvalues --    0.41687   0.42633   0.45028   0.46069   0.47401
 Alpha virt. eigenvalues --    0.47872   0.50356   0.51679   0.54347   0.55218
 Alpha virt. eigenvalues --    0.56282   0.56725   0.57797   0.58864   0.59347
 Alpha virt. eigenvalues --    0.60021   0.61293   0.61620   0.63480   0.64956
 Alpha virt. eigenvalues --    0.66674   0.68170   0.68970   0.69618   0.70231
 Alpha virt. eigenvalues --    0.71158   0.71971   0.72422   0.76831   0.80052
 Alpha virt. eigenvalues --    0.82289   0.84217   0.86842   0.88971   0.92244
 Alpha virt. eigenvalues --    0.93689   0.95370   0.96090   0.96768   0.99653
 Alpha virt. eigenvalues --    1.02050   1.02961   1.05171   1.09600   1.11475
 Alpha virt. eigenvalues --    1.12226   1.14729   1.15506   1.17676   1.18865
 Alpha virt. eigenvalues --    1.19848   1.21246   1.22738   1.24039   1.25683
 Alpha virt. eigenvalues --    1.28273   1.29183   1.31545   1.33520   1.33625
 Alpha virt. eigenvalues --    1.34630   1.36727   1.38986   1.40421   1.41177
 Alpha virt. eigenvalues --    1.42965   1.44064   1.44835   1.46851   1.47634
 Alpha virt. eigenvalues --    1.48410   1.51852   1.53458   1.55164   1.57992
 Alpha virt. eigenvalues --    1.58762   1.59132   1.60879   1.61332   1.64080
 Alpha virt. eigenvalues --    1.66360   1.70160   1.78020   1.83543   1.98423
 Alpha virt. eigenvalues --    2.37335   2.42495   2.45005   2.50600   2.51408
 Alpha virt. eigenvalues --    2.52464   2.56756   2.62721   2.70240   2.73022
 Alpha virt. eigenvalues --    2.75929   2.79419   2.81189   2.85387   2.86788
 Alpha virt. eigenvalues --    2.87858   2.89833   2.91156   2.93029   2.94519
 Alpha virt. eigenvalues --    2.97918   2.98766   3.00760   3.02326   3.02899
 Alpha virt. eigenvalues --    3.06807   3.09784   3.11169   3.12038   3.14048
 Alpha virt. eigenvalues --    3.17108   3.18075   3.19004   3.19895   3.21576
 Alpha virt. eigenvalues --    3.22337   3.24111   3.27279   3.27578   3.31996
 Alpha virt. eigenvalues --    3.35447   3.35774   3.37763   3.39866   3.41126
 Alpha virt. eigenvalues --    3.43948   3.45050   3.49417   3.51923   3.54717
 Alpha virt. eigenvalues --    3.56044   3.57220   3.58141   3.60563   3.63912
 Alpha virt. eigenvalues --    3.65131   3.68729   3.73421   3.75847   3.78325
 Alpha virt. eigenvalues --    3.80888   3.85259   3.87702   3.88758   3.90893
 Alpha virt. eigenvalues --    3.92249   3.95849   3.96310   3.97301   4.01119
 Alpha virt. eigenvalues --    4.02550   4.06171   4.08498   4.09745   4.11855
 Alpha virt. eigenvalues --    4.15389   4.16378   4.18165   4.20234   4.22516
 Alpha virt. eigenvalues --    4.23061   4.23889   4.28125   4.32861   4.34337
 Alpha virt. eigenvalues --    4.36474   4.37130   4.39750   4.41535   4.42767
 Alpha virt. eigenvalues --    4.45558   4.47362   4.53098   4.56259   4.58158
 Alpha virt. eigenvalues --    4.60095   4.63051   4.69243   4.71068   4.73369
 Alpha virt. eigenvalues --    4.82223   4.85716   5.00439   5.11143   5.14068
 Alpha virt. eigenvalues --    5.39030   5.48144   5.50320   5.54368   5.55563
 Alpha virt. eigenvalues --    5.58062   5.59302   5.63355   5.67856   5.87384
 Alpha virt. eigenvalues --   24.04520  24.38646  24.42041  24.45564  24.91824
          Condensed to atoms (all electrons):
              1          2          3          4          5          6
     1  C    5.542070   0.296120   0.058078   0.061219  -0.146640   0.414022
     2  C    0.296120   5.374007   0.019053  -0.037829   0.200739  -0.062309
     3  C    0.058078   0.019053   5.328577  -0.053596   0.023886  -0.005103
     4  C    0.061219  -0.037829  -0.053596   5.594942  -0.334842   0.031330
     5  C   -0.146640   0.200739   0.023886  -0.334842   5.759213  -0.023648
     6  H    0.414022  -0.062309  -0.005103   0.031330  -0.023648   0.516983
     7  H   -0.038576  -0.051034   0.430877   0.006733   0.000445   0.004001
     8  H   -0.020850  -0.011616   0.416205   0.000570  -0.023096   0.003086
     9  H   -0.074296   0.049874   0.405710   0.006450  -0.003119  -0.011091
    10  H   -0.037679  -0.046370   0.004083   0.415157   0.033117   0.000383
    11  H    0.051071  -0.114016   0.008176   0.434983  -0.014786   0.001366
    12  H   -0.002794  -0.015960  -0.005121   0.407703  -0.016024   0.000247
    13  H    0.019390  -0.024744  -0.004268  -0.028487   0.406220  -0.000191
    14  H    0.017955  -0.038094   0.010756  -0.006526   0.392527   0.000074
    15  H   -0.020518  -0.070234   0.003470   0.014567   0.426050  -0.000175
              7          8          9         10         11         12
     1  C   -0.038576  -0.020850  -0.074296  -0.037679   0.051071  -0.002794
     2  C   -0.051034  -0.011616   0.049874  -0.046370  -0.114016  -0.015960
     3  C    0.430877   0.416205   0.405710   0.004083   0.008176  -0.005121
     4  C    0.006733   0.000570   0.006450   0.415157   0.434983   0.407703
     5  C    0.000445  -0.023096  -0.003119   0.033117  -0.014786  -0.016024
     6  H    0.004001   0.003086  -0.011091   0.000383   0.001366   0.000247
     7  H    0.562743  -0.037332  -0.028998   0.000214   0.000223  -0.000146
     8  H   -0.037332   0.542821  -0.020988  -0.000057  -0.000072   0.000137
     9  H   -0.028998  -0.020988   0.542072   0.000008  -0.000077   0.000011
    10  H    0.000214  -0.000057   0.000008   0.568561  -0.026998  -0.037973
    11  H    0.000223  -0.000072  -0.000077  -0.026998   0.553948  -0.021549
    12  H   -0.000146   0.000137   0.000011  -0.037973  -0.021549   0.542195
    13  H   -0.000396   0.001137  -0.000007  -0.001684   0.000038   0.001780
    14  H   -0.002285  -0.004197   0.000590   0.000367  -0.000382  -0.000174
    15  H    0.001073  -0.000298  -0.000022   0.003405   0.000298  -0.000238
             13         14         15
     1  C    0.019390   0.017955  -0.020518
     2  C   -0.024744  -0.038094  -0.070234
     3  C   -0.004268   0.010756   0.003470
     4  C   -0.028487  -0.006526   0.014567
     5  C    0.406220   0.392527   0.426050
     6  H   -0.000191   0.000074  -0.000175
     7  H   -0.000396  -0.002285   0.001073
     8  H    0.001137  -0.004197  -0.000298
     9  H   -0.000007   0.000590  -0.000022
    10  H   -0.001684   0.000367   0.003405
    11  H    0.000038  -0.000382   0.000298
    12  H    0.001780  -0.000174  -0.000238
    13  H    0.539824  -0.021219  -0.041561
    14  H   -0.021219   0.525884  -0.025799
    15  H   -0.041561  -0.025799   0.568370
 Mulliken atomic charges:
              1
     1  C   -0.118574
     2  C    0.532414
     3  C   -0.640785
     4  C   -0.512374
     5  C   -0.680041
     6  H    0.131023
     7  H    0.152459
     8  H    0.154549
     9  H    0.133882
    10  H    0.125464
    11  H    0.127777
    12  H    0.147907
    13  H    0.154168
    14  H    0.150522
    15  H    0.141611
 Sum of Mulliken atomic charges =   0.00000
 Mulliken charges with hydrogens summed into heavy atoms:
              1
     1  C    0.012449
     2  C    0.532414
     3  C   -0.199896
     4  C   -0.111226
     5  C   -0.233741
 Sum of Mulliken charges with hydrogens summed into heavy atoms =   0.00000
 Electronic spatial extent (au):  <R**2>=            520.3093
 Charge=              0.0000 electrons
 Dipole moment (field-independent basis, Debye):
    X=             -0.2027    Y=              0.2589    Z=              0.3381  Tot=              0.4716
 Quadrupole moment (field-independent basis, Debye-Ang):
   XX=            -32.9091   YY=            -33.2124   ZZ=            -34.7167
   XY=             -0.4635   XZ=              0.2234   YZ=             -0.3924
 Traceless Quadrupole moment (field-independent basis, Debye-Ang):
   XX=              0.7037   YY=              0.4003   ZZ=             -1.1040
   XY=             -0.4635   XZ=              0.2234   YZ=             -0.3924
 Octapole moment (field-independent basis, Debye-Ang**2):
  XXX=             -0.0533  YYY=             -2.1676  ZZZ=              1.1904  XYY=              1.2113
  XXY=              0.3173  XXZ=             -0.3385  XZZ=             -1.5008  YZZ=              1.9846
  YYZ=              0.2268  XYZ=             -0.5106
 Hexadecapole moment (field-independent basis, Debye-Ang**3):
 XXXX=           -457.2621 YYYY=           -223.0250 ZZZZ=            -64.3117 XXXY=             -6.2037
 XXXZ=             -0.5504 YYYX=             -1.1939 YYYZ=             -2.8749 ZZZX=              2.0690
 ZZZY=             -0.6023 XXYY=           -112.4525 XXZZ=            -82.6009 YYZZ=            -48.5206
 XXYZ=             -0.1719 YYXZ=              0.2340 ZZXY=              0.1723
 N-N= 1.763443346312D+02 E-N=-8.072751289008D+02  KE= 1.955188122137D+02
 No NMR shielding tensors so no spin-rotation constants.
 Leave Link  601 at Tue Jun 12 12:08:49 2018, MaxMem=  671088640 cpu:      10.4
 (Enter /shared/apps/gaussian/G09_LINUX_LINDA/g09/l701.exe)
 Compute integral first derivatives.
 ... and contract with generalized density number  0.
 Leave Link  701 at Tue Jun 12 12:08:52 2018, MaxMem=  671088640 cpu:      19.6
 (Enter /shared/apps/gaussian/G09_LINUX_LINDA/g09/l702.exe)
 L702 exits ... SP integral derivatives will be done elsewhere.
 Leave Link  702 at Tue Jun 12 12:08:52 2018, MaxMem=  671088640 cpu:       0.2
 (Enter /shared/apps/gaussian/G09_LINUX_LINDA/g09/l703.exe)
 Compute integral first derivatives, UseDBF=F ICtDFT=           0.
 Integral derivatives from FoFDir, PRISM(SPDF).
 Calling FoFJK, ICntrl=      2127 FMM=F ISym2X=0 I1Cent= 0 IOpClX= 0 NMat=1 NMatS=1 NMatT=0.
 FoFCou: FMM=F IPFlag=           0 FMFlag=      100000 FMFlg1=         800
         NFxFlg=           0 DoJE=F BraDBF=F KetDBF=F FulRan=T
         Omega=  0.000000  0.000000  1.000000  0.000000  0.000000 ICntrl=    2127 IOpCl=  0
         NMat0=    1 NMatS0=    1 NMatT0=    0 NMatD0=    1 NMtDS0=    0 NMtDT0=    0
         I1Cent=           0 NGrid=           0.
 Symmetry not used in FoFCou.
 Leave Link  703 at Tue Jun 12 12:09:07 2018, MaxMem=  671088640 cpu:     151.5
 (Enter /shared/apps/gaussian/G09_LINUX_LINDA/g09/l716.exe)
 Dipole        =-7.97319586D-02 1.01872182D-01 1.33030452D-01
 ***** Axes restored to original set *****
 -------------------------------------------------------------------
 Center     Atomic                   Forces (Hartrees/Bohr)
 Number     Number              X              Y              Z
 -------------------------------------------------------------------
      1        6          -0.017831469   -0.012515084    0.028843674
      2        6          -0.002429581   -0.005843931   -0.016597088
      3        6           0.033617991    0.010121457    0.002187334
      4        6           0.000185898   -0.009572601    0.006429804
      5        6          -0.017375799    0.016138207    0.011014353
      6        1           0.000432573    0.004480664   -0.006934356
      7        1           0.002881493   -0.000190214   -0.018530150
      8        1          -0.002715922   -0.003243402    0.011105899
      9        1          -0.010007658    0.005346512   -0.003035521
     10        1           0.010053851   -0.005023055   -0.008488346
     11        1          -0.012710833    0.004088849   -0.006541959
     12        1           0.002243456   -0.000170482    0.005207280
     13        1           0.009788277   -0.003294630    0.008766871
     14        1          -0.003004942   -0.003225165   -0.004743762
     15        1           0.006872664    0.002902875   -0.008684033
 -------------------------------------------------------------------
 Cartesian Forces:  Max     0.033617991 RMS     0.010732656
 Leave Link  716 at Tue Jun 12 12:09:07 2018, MaxMem=  671088640 cpu:       0.5
 (Enter /shared/apps/gaussian/G09_LINUX_LINDA/g09/l103.exe)

 GradGradGradGradGradGradGradGradGradGradGradGradGradGradGradGradGradGrad
 Berny optimization.
 Internal  Forces:  Max     0.023853627 RMS     0.007436135
 Search for a local minimum.
 Step number   1 out of a maximum of   70
 All quantities printed in internal units (Hartrees-Bohrs-Radians)
 Swaping is turned off.
 Second derivative matrix not updated -- first step.
 ITU=  0
     Eigenvalues ---    0.00753   0.01015   0.01091   0.01470   0.02195
     Eigenvalues ---    0.02968   0.06718   0.07013   0.07104   0.07633
     Eigenvalues ---    0.07753   0.07858   0.15008   0.16000   0.16000
     Eigenvalues ---    0.16000   0.16000   0.16000   0.16000   0.16000
     Eigenvalues ---    0.16000   0.16000   0.22270   0.24992   0.24996
     Eigenvalues ---    0.31647   0.32157   0.32272   0.32283   0.32331
     Eigenvalues ---    0.32695   0.32883   0.33029   0.33682   0.34364
     Eigenvalues ---    0.34392   0.34434   0.35096   0.58678
 Quadratic step=9.076D-01 exceeds max=3.000D-01 adjusted using Lamda=-5.655D-02.
 Angle between NR and scaled steps=  25.70 degrees.
 Angle between quadratic step and forces=  36.35 degrees.
 Linear search not attempted -- option 19 set.
 Iteration  1 RMS(Cart)=  0.07631320 RMS(Int)=  0.00301079
 Iteration  2 RMS(Cart)=  0.00436360 RMS(Int)=  0.00068373
 Iteration  3 RMS(Cart)=  0.00000993 RMS(Int)=  0.00068369
 Iteration  4 RMS(Cart)=  0.00000000 RMS(Int)=  0.00068369
 Variable       Old X    -DE/DX   Delta X   Delta X   Delta X     New X
                                 (Linear)    (Quad)   (Total)
    R1        2.52002   0.00346   0.00000   0.00537   0.00537   2.52539
    R2        2.78819   0.02385   0.00000   0.05854   0.05854   2.84673
    R3        2.06674  -0.00505   0.00000  -0.01260  -0.01260   2.05414
    R4        2.83648   0.00667   0.00000   0.01758   0.01758   2.85406
    R5        2.79904   0.01301   0.00000   0.03246   0.03246   2.83151
    R6        2.11495  -0.01723   0.00000  -0.04618  -0.04618   2.06877
    R7        2.09257  -0.01045   0.00000  -0.02711  -0.02711   2.06546
    R8        2.09591  -0.01152   0.00000  -0.03005  -0.03005   2.06586
    R9        2.10330  -0.01406   0.00000  -0.03707  -0.03707   2.06623
   R10        2.09000  -0.01076   0.00000  -0.02781  -0.02781   2.06219
   R11        2.07870  -0.00555   0.00000  -0.01410  -0.01410   2.06460
   R12        2.10557  -0.01315   0.00000  -0.03479  -0.03479   2.07078
   R13        2.06721  -0.00488   0.00000  -0.01219  -0.01219   2.05502
   R14        2.10243  -0.01056   0.00000  -0.02781  -0.02781   2.07462
    A1        2.11545   0.01719   0.00000   0.06967   0.06678   2.18223
    A2        2.03321  -0.00708   0.00000  -0.01057  -0.01364   2.01957
    A3        2.03945  -0.00491   0.00000  -0.00378  -0.00672   2.03273
    A4        2.12507  -0.00186   0.00000  -0.00612  -0.00614   2.11893
    A5        2.15744  -0.00220   0.00000  -0.00723  -0.00725   2.15020
    A6        2.00043   0.00404   0.00000   0.01311   0.01309   2.01353
    A7        1.90754   0.00509   0.00000   0.02266   0.02260   1.93014
    A8        1.98378   0.00166   0.00000   0.00379   0.00381   1.98759
    A9        1.94187  -0.00142   0.00000  -0.00202  -0.00211   1.93976
   A10        1.94905  -0.00742   0.00000  -0.04237  -0.04233   1.90672
   A11        1.82838   0.00156   0.00000   0.01537   0.01519   1.84357
   A12        1.84654   0.00025   0.00000   0.00242   0.00241   1.84895
   A13        1.93983  -0.00242   0.00000  -0.01205  -0.01226   1.92757
   A14        1.84613   0.01487   0.00000   0.07186   0.07167   1.91779
   A15        1.96720  -0.00127   0.00000  -0.00834  -0.00852   1.95868
   A16        1.90144  -0.00415   0.00000  -0.01401  -0.01423   1.88721
   A17        1.87616  -0.00032   0.00000  -0.00715  -0.00733   1.86883
   A18        1.93290  -0.00697   0.00000  -0.03097  -0.03113   1.90177
   A19        1.95419  -0.00295   0.00000  -0.01776  -0.01812   1.93607
   A20        2.00356  -0.00202   0.00000  -0.01277  -0.01318   1.99037
   A21        1.86360   0.00841   0.00000   0.04609   0.04606   1.90966
   A22        1.92933  -0.00151   0.00000  -0.01812  -0.01874   1.91059
   A23        1.82996  -0.00018   0.00000   0.00599   0.00603   1.83599
   A24        1.87149  -0.00104   0.00000   0.00235   0.00226   1.87374
    D1       -2.78821  -0.01058   0.00000  -0.12659  -0.12657  -2.91478
    D2        0.37792  -0.00974   0.00000  -0.11430  -0.11437   0.26355
    D3       -0.11560  -0.00018   0.00000  -0.00078  -0.00071  -0.11632
    D4        3.05052   0.00065   0.00000   0.01151   0.01149   3.06201
    D5        0.88879   0.00226   0.00000   0.04302   0.04320   0.93199
    D6       -1.30146   0.00681   0.00000   0.07830   0.07859  -1.22287
    D7        2.89946   0.00637   0.00000   0.07401   0.07435   2.97382
    D8       -1.78223  -0.00765   0.00000  -0.08158  -0.08193  -1.86416
    D9        2.31071  -0.00310   0.00000  -0.04630  -0.04655   2.26416
   D10        0.22845  -0.00354   0.00000  -0.05058  -0.05078   0.17767
   D11        2.47395   0.00128   0.00000   0.00453   0.00457   2.47852
   D12        0.41277  -0.00126   0.00000  -0.01473  -0.01474   0.39803
   D13       -1.70172  -0.00176   0.00000  -0.01916  -0.01913  -1.72085
   D14       -0.69011   0.00044   0.00000  -0.00697  -0.00697  -0.69709
   D15       -2.75130  -0.00209   0.00000  -0.02624  -0.02628  -2.77758
   D16        1.41740  -0.00259   0.00000  -0.03066  -0.03067   1.38673
   D17        1.97707  -0.00299   0.00000  -0.02208  -0.02184   1.95522
   D18       -0.24115   0.00344   0.00000   0.02981   0.02960  -0.21155
   D19       -2.31263   0.00014   0.00000   0.00261   0.00254  -2.31009
   D20       -1.14158  -0.00214   0.00000  -0.01036  -0.01009  -1.15167
   D21        2.92339   0.00429   0.00000   0.04154   0.04135   2.96474
   D22        0.85191   0.00099   0.00000   0.01433   0.01429   0.86620
         Item               Value     Threshold  Converged?
 Maximum Force            0.023854     0.000002     NO 
 RMS     Force            0.007436     0.000001     NO 
 Maximum Displacement     0.265049     0.000006     NO 
 RMS     Displacement     0.074971     0.000004     NO 
 Predicted change in Energy=-9.557654D-03
 GradGradGradGradGradGradGradGradGradGradGradGradGradGradGradGradGradGrad

 Leave Link  103 at Tue Jun 12 12:09:11 2018, MaxMem=  671088640 cpu:      41.7
 (Enter /shared/apps/gaussian/G09_LINUX_LINDA/g09/l202.exe)
                          Input orientation:                          
 ---------------------------------------------------------------------
 Center     Atomic      Atomic             Coordinates (Angstroms)
 Number     Number       Type             X           Y           Z
 ---------------------------------------------------------------------
      1          6           0        0.858744   -0.602217   -0.144324
      2          6           0       -0.409573   -0.188815   -0.064457
      3          6           0        2.067896    0.271876    0.063577
      4          6           0       -1.554879   -1.171157    0.001108
      5          6           0       -0.803771    1.256693   -0.079403
      6          1           0        1.012673   -1.673681   -0.045080
      7          1           0        2.004458    0.794858    1.023232
      8          1           0        2.229046    1.001298   -0.734302
      9          1           0        2.982212   -0.325315    0.113493
     10          1           0       -2.329844   -0.809277    0.682281
     11          1           0       -1.197989   -2.132996    0.373069
     12          1           0       -2.027645   -1.320274   -0.972495
     13          1           0       -1.344900    1.505362   -0.999263
     14          1           0        0.028958    1.944314    0.048385
     15          1           0       -1.515388    1.449329    0.734079
 ---------------------------------------------------------------------
                    Distance matrix (angstroms):
                    1          2          3          4          5
     1  C    0.000000
     2  C    1.336378   0.000000
     3  C    1.506423   2.523189   0.000000
     4  C    2.484033   1.510305   3.900095   0.000000
     5  C    2.494738   1.498369   3.039208   2.542656   0.000000
     6  H    1.087005   2.056207   2.215963   2.616675   3.447861
     7  H    2.151201   2.824575   1.094747   4.192711   3.052089
     8  H    2.190219   2.971089   1.092994   4.424757   3.113214
     9  H    2.156910   3.399192   1.093207   4.616630   4.107752
    10  H    3.300491   2.151751   4.570755   1.093400   2.679047
    11  H    2.615556   2.143098   4.067579   1.091266   3.442402
    12  H    3.087509   2.173221   4.514625   1.092541   2.989355
    13  H    3.166836   2.149170   3.781308   2.865063   1.095810
    14  H    2.685237   2.180661   2.637147   3.495273   1.087470
    15  H    3.258364   2.131667   3.830913   2.721351   1.097843
                    6          7          8          9         10
     6  H    0.000000
     7  H    2.866812   0.000000
     8  H    3.018294   1.783811   0.000000
     9  H    2.392137   1.743105   1.745255   0.000000
    10  H    3.528267   4.634185   5.105719   5.364297   0.000000
    11  H    2.296268   4.387563   4.774373   4.561707   1.768882
    12  H    3.198207   4.971374   4.854467   5.221875   1.758045
    13  H    4.071232   3.976619   3.619029   4.828405   3.025766
    14  H    3.750509   2.484789   2.518385   3.725206   3.680766
    15  H    4.092844   3.591832   4.046932   4.874720   2.401525
                   11         12         13         14         15
    11  H    0.000000
    12  H    1.777467   0.000000
    13  H    3.891340   2.907073   0.000000
    14  H    4.270279   3.991158   1.782619   0.000000
    15  H    3.614433   3.293251   1.742608   1.760737   0.000000
 Stoichiometry    C5H10
 Framework group  C1[X(C5H10)]
 Deg. of freedom    39
 Full point group                 C1      NOp   1
 Largest Abelian subgroup         C1      NOp   1
 Largest concise Abelian subgroup C1      NOp   1
                         Standard orientation:                         
 ---------------------------------------------------------------------
 Center     Atomic      Atomic             Coordinates (Angstroms)
 Number     Number       Type             X           Y           Z
 ---------------------------------------------------------------------
      1          6           0        0.703369   -0.709358   -0.140611
      2          6           0       -0.448611   -0.041146   -0.029524
      3          6           0        2.072217   -0.111299    0.054046
      4          6           0       -1.773025   -0.763068    0.046488
      5          6           0       -0.531381    1.454887   -0.017512
      6          1           0        0.631061   -1.790846   -0.058559
      7          1           0        2.136257    0.396924    1.021558
      8          1           0        2.368898    0.581766   -0.737332
      9          1           0        2.841828   -0.887347    0.077507
     10          1           0       -2.443148   -0.258723    0.747982
     11          1           0       -1.619256   -1.784498    0.398478
     12          1           0       -2.283190   -0.793323   -0.919153
     13          1           0       -1.024110    1.826940   -0.922826
     14          1           0        0.429009    1.950761    0.102280
     15          1           0       -1.172762    1.778247    0.812747
 ---------------------------------------------------------------------
 Rotational constants (GHZ):      8.0961318      3.5750475      2.6086424
 Leave Link  202 at Tue Jun 12 12:09:12 2018, MaxMem=  671088640 cpu:       0.8
 (Enter /shared/apps/gaussian/G09_LINUX_LINDA/g09/l301.exe)
 Standard basis: 6-311+G(2df,2p) (5D, 7F)
 Ernie: Thresh=  0.10000D-02 Tol=  0.10000D-05 Strict=F.
 There are   260 symmetry adapted basis functions of A   symmetry.
 Integral buffers will be    131072 words long.
 Raffenetti 2 integral format.
 Two-electron integral symmetry is turned on.
   260 basis functions,   370 primitive gaussians,   285 cartesian basis functions
    20 alpha electrons       20 beta electrons
       nuclear repulsion energy       175.0005056682 Hartrees.
 IExCor= 4336 DFT=T Ex+Corr=M062X ExCW=0 ScaHFX=  0.540000
 ScaDFX=  1.000000  1.000000  1.000000  1.000000 ScalE2=  1.000000  1.000000
 IRadAn=      0 IRanWt=     -1 IRanGd=            0 ICorTp=0
 NAtoms=   15 NActive=   15 NUniq=   15 SFac= 1.00D+00 NAtFMM=   50 NAOKFM=F Big=F
 Leave Link  301 at Tue Jun 12 12:09:12 2018, MaxMem=  671088640 cpu:       0.9
 (Enter /shared/apps/gaussian/G09_LINUX_LINDA/g09/l302.exe)
 NPDir=0 NMtPBC=     1 NCelOv=     1 NCel=       1 NClECP=     1 NCelD=      1
         NCelK=      1 NCelE2=     1 NClLst=     1 CellRange=     0.0.
 One-electron integrals computed using PRISM.
 NBasis=   260 RedAO= T  NBF=   260
 NBsUse=   260 1.00D-06 NBFU=   260
 Precomputing XC quadrature grid using
 IXCGrd= 2 IRadAn=           0 IRanWt=          -1 IRanGd=           0 AccXCQ= 0.00D+00.
 NRdTot=     967 NPtTot=      122348 NUsed=      129325 NTot=      129357
 NSgBfM=   285   285   285   285   285 NAtAll=    15    15.
 Leave Link  302 at Tue Jun 12 12:09:13 2018, MaxMem=  671088640 cpu:      13.4
 (Enter /shared/apps/gaussian/G09_LINUX_LINDA/g09/l303.exe)
 DipDrv:  MaxL=1.
 Leave Link  303 at Tue Jun 12 12:09:14 2018, MaxMem=  671088640 cpu:       3.5
 (Enter /shared/apps/gaussian/G09_LINUX_LINDA/g09/l401.exe)
 Initial guess read from the read-write file.
 B after Tr=     0.000000    0.000000    0.000000
         Rot=    1.000000    0.000000    0.000000    0.000000 Ang=   0.00 deg.
 Guess basis will be translated and rotated to current coordinates.
 Initial guess orbital symmetries:
       Occupied  (A) (A) (A) (A) (A) (A) (A) (A) (A) (A) (A) (A)
                 (A) (A) (A) (A) (A) (A) (A) (A)
       Virtual   (A) (A) (A) (A) (A) (A) (A) (A) (A) (A) (A) (A)
                 (A) (A) (A) (A) (A) (A) (A) (A) (A) (A) (A) (A)
                 (A) (A) (A) (A) (A) (A) (A) (A) (A) (A) (A) (A)
                 (A) (A) (A) (A) (A) (A) (A) (A) (A) (A) (A) (A)
                 (A) (A) (A) (A) (A) (A) (A) (A) (A) (A) (A) (A)
                 (A) (A) (A) (A) (A) (A) (A) (A) (A) (A) (A) (A)
                 (A) (A) (A) (A) (A) (A) (A) (A) (A) (A) (A) (A)
                 (A) (A) (A) (A) (A) (A) (A) (A) (A) (A) (A) (A)
                 (A) (A) (A) (A) (A) (A) (A) (A) (A) (A) (A) (A)
                 (A) (A) (A) (A) (A) (A) (A) (A) (A) (A) (A) (A)
                 (A) (A) (A) (A) (A) (A) (A) (A) (A) (A) (A) (A)
                 (A) (A) (A) (A) (A) (A) (A) (A) (A) (A) (A) (A)
                 (A) (A) (A) (A) (A) (A) (A) (A) (A) (A) (A) (A)
                 (A) (A) (A) (A) (A) (A) (A) (A) (A) (A) (A) (A)
                 (A) (A) (A) (A) (A) (A) (A) (A) (A) (A) (A) (A)
                 (A) (A) (A) (A) (A) (A) (A) (A) (A) (A) (A) (A)
                 (A) (A) (A) (A) (A) (A) (A) (A) (A) (A) (A) (A)
                 (A) (A) (A) (A) (A) (A) (A) (A) (A) (A) (A) (A)
                 (A) (A) (A) (A) (A) (A) (A) (A) (A) (A) (A) (A)
                 (A) (A) (A) (A) (A) (A) (A) (A) (A) (A) (A) (A)
 The electronic state of the initial guess is 1-A.
 Generating alternative initial guess.
 Harris functional with IExCor= 1009 diagonalized for initial guess.
 ExpMin= 4.38D-02 ExpMax= 4.56D+03 ExpMxC= 6.82D+02 IAcc=2 IRadAn=         0 AccDes= 0.00D+00
 HarFok:  IExCor= 1009 AccDes= 0.00D+00 IRadAn=         0 IDoV= 1
 ScaDFX=  1.000000  1.000000  1.000000  1.000000
 FoFCou: FMM=F IPFlag=           0 FMFlag=      100000 FMFlg1=           0
         NFxFlg=           0 DoJE=T BraDBF=F KetDBF=T FulRan=T
         Omega=  0.000000  0.000000  1.000000  0.000000  0.000000 ICntrl=     500 IOpCl=  0
         NMat0=    1 NMatS0=    1 NMatT0=    0 NMatD0=    1 NMtDS0=    0 NMtDT0=    0
         I1Cent=           4 NGrid=           0.
 Petite list used in FoFCou.
 Harris En= -196.488321913024    
 Leave Link  401 at Tue Jun 12 12:09:21 2018, MaxMem=  671088640 cpu:      71.8
 (Enter /shared/apps/gaussian/G09_LINUX_LINDA/g09/l502.exe)
 Closed shell SCF:
 Requested convergence on RMS density matrix=1.00D-08 within 128 cycles.
 Requested convergence on MAX density matrix=1.00D-06.
 Requested convergence on             energy=1.00D-06.
 No special actions if energy rises.
 Using DIIS extrapolation, IDIIS=  1040.
 Integral symmetry usage will be decided dynamically.
       129177 words used for storage of precomputed grid.
 IEnd=      398788 IEndB=      398788 NGot=   671088640 MDV=   670788003
 LenX=   670788003 LenY=   670706337
 Fock matrices will be formed incrementally for  20 cycles.

 Cycle   1  Pass 1  IDiag  1:
 FoFCou: FMM=F IPFlag=           0 FMFlag=      100000 FMFlg1=           0
         NFxFlg=           0 DoJE=F BraDBF=F KetDBF=F FulRan=T
         Omega=  0.000000  0.000000  1.000000  0.000000  0.000000 ICntrl=       0 IOpCl=  0
         NMat0=    1 NMatS0=    1 NMatT0=    0 NMatD0=    1 NMtDS0=    0 NMtDT0=    0
         I1Cent=           0 NGrid=           0.
 Symmetry not used in FoFCou.
 E= -196.486436902095    
 DIIS: error= 3.96D-03 at cycle   1 NSaved=   1.
 NSaved= 1 IEnMin= 1 EnMin= -196.486436902095     IErMin= 1 ErrMin= 3.96D-03
 ErrMax= 3.96D-03 EMaxC= 1.00D-01 BMatC= 4.33D-03 BMatP= 4.33D-03
 IDIUse=3 WtCom= 9.60D-01 WtEn= 3.96D-02
 Coeff-Com:  0.100D+01
 Coeff-En:   0.100D+01
 Coeff:      0.100D+01
 Gap=     0.319 Goal=   None    Shift=    0.000
 GapD=    0.319 DampG=1.000 DampE=1.000 DampFc=1.0000 IDamp=-1.
 RMSDP=1.06D-03 MaxDP=8.64D-02              OVMax= 2.00D-02

 Cycle   2  Pass 1  IDiag  1:
 RMSU=  7.23D-04    CP:  1.03D+00
 E= -196.492024718704     Delta-E=       -0.005587816608 Rises=F Damp=F
 DIIS: error= 7.80D-04 at cycle   2 NSaved=   2.
 NSaved= 2 IEnMin= 2 EnMin= -196.492024718704     IErMin= 2 ErrMin= 7.80D-04
 ErrMax= 7.80D-04 EMaxC= 1.00D-01 BMatC= 1.72D-04 BMatP= 4.33D-03
 IDIUse=3 WtCom= 9.92D-01 WtEn= 7.80D-03
 Coeff-Com: -0.504D-01 0.105D+01
 Coeff-En:   0.000D+00 0.100D+01
 Coeff:     -0.500D-01 0.105D+01
 Gap=     0.301 Goal=   None    Shift=    0.000
 RMSDP=1.20D-04 MaxDP=6.74D-03 DE=-5.59D-03 OVMax= 4.73D-03

 Cycle   3  Pass 1  IDiag  1:
 RMSU=  6.09D-05    CP:  1.03D+00  1.08D+00
 E= -196.492245433922     Delta-E=       -0.000220715219 Rises=F Damp=F
 DIIS: error= 5.85D-04 at cycle   3 NSaved=   3.
 NSaved= 3 IEnMin= 3 EnMin= -196.492245433922     IErMin= 3 ErrMin= 5.85D-04
 ErrMax= 5.85D-04 EMaxC= 1.00D-01 BMatC= 6.60D-05 BMatP= 1.72D-04
 IDIUse=3 WtCom= 9.94D-01 WtEn= 5.85D-03
 Coeff-Com: -0.515D-01 0.398D+00 0.653D+00
 Coeff-En:   0.000D+00 0.000D+00 0.100D+01
 Coeff:     -0.512D-01 0.396D+00 0.655D+00
 Gap=     0.301 Goal=   None    Shift=    0.000
 RMSDP=3.13D-05 MaxDP=1.41D-03 DE=-2.21D-04 OVMax= 1.76D-03

 Cycle   4  Pass 1  IDiag  1:
 RMSU=  1.94D-05    CP:  1.03D+00  1.09D+00  8.91D-01
 E= -196.492309138654     Delta-E=       -0.000063704732 Rises=F Damp=F
 DIIS: error= 1.00D-04 at cycle   4 NSaved=   4.
 NSaved= 4 IEnMin= 4 EnMin= -196.492309138654     IErMin= 4 ErrMin= 1.00D-04
 ErrMax= 1.00D-04 EMaxC= 1.00D-01 BMatC= 2.67D-06 BMatP= 6.60D-05
 IDIUse=3 WtCom= 9.99D-01 WtEn= 1.00D-03
 Coeff-Com: -0.698D-02-0.418D-02 0.143D+00 0.868D+00
 Coeff-En:   0.000D+00 0.000D+00 0.000D+00 0.100D+01
 Coeff:     -0.697D-02-0.417D-02 0.143D+00 0.868D+00
 Gap=     0.301 Goal=   None    Shift=    0.000
 RMSDP=1.11D-05 MaxDP=3.66D-04 DE=-6.37D-05 OVMax= 5.55D-04

 Cycle   5  Pass 1  IDiag  1:
 RMSU=  6.17D-06    CP:  1.03D+00  1.09D+00  9.60D-01  1.10D+00
 E= -196.492312108967     Delta-E=       -0.000002970313 Rises=F Damp=F
 DIIS: error= 3.14D-05 at cycle   5 NSaved=   5.
 NSaved= 5 IEnMin= 5 EnMin= -196.492312108967     IErMin= 5 ErrMin= 3.14D-05
 ErrMax= 3.14D-05 EMaxC= 1.00D-01 BMatC= 3.33D-07 BMatP= 2.67D-06
 IDIUse=1 WtCom= 1.00D+00 WtEn= 0.00D+00
 Coeff-Com:  0.202D-03-0.236D-01 0.171D-01 0.319D+00 0.688D+00
 Coeff:      0.202D-03-0.236D-01 0.171D-01 0.319D+00 0.688D+00
 Gap=     0.301 Goal=   None    Shift=    0.000
 RMSDP=3.73D-06 MaxDP=2.13D-04 DE=-2.97D-06 OVMax= 4.10D-04

 Cycle   6  Pass 1  IDiag  1:
 RMSU=  2.02D-06    CP:  1.03D+00  1.09D+00  9.75D-01  1.14D+00  8.99D-01
 E= -196.492312424161     Delta-E=       -0.000000315194 Rises=F Damp=F
 DIIS: error= 1.91D-05 at cycle   6 NSaved=   6.
 NSaved= 6 IEnMin= 6 EnMin= -196.492312424161     IErMin= 6 ErrMin= 1.91D-05
 ErrMax= 1.91D-05 EMaxC= 1.00D-01 BMatC= 8.16D-08 BMatP= 3.33D-07
 IDIUse=1 WtCom= 1.00D+00 WtEn= 0.00D+00
 Coeff-Com:  0.938D-03-0.126D-01-0.865D-02 0.631D-01 0.365D+00 0.592D+00
 Coeff:      0.938D-03-0.126D-01-0.865D-02 0.631D-01 0.365D+00 0.592D+00
 Gap=     0.301 Goal=   None    Shift=    0.000
 RMSDP=1.46D-06 MaxDP=5.85D-05 DE=-3.15D-07 OVMax= 1.25D-04

 Cycle   7  Pass 1  IDiag  1:
 RMSU=  7.29D-07    CP:  1.03D+00  1.09D+00  9.78D-01  1.15D+00  1.00D+00
                    CP:  9.74D-01
 E= -196.492312505592     Delta-E=       -0.000000081430 Rises=F Damp=F
 DIIS: error= 2.64D-06 at cycle   7 NSaved=   7.
 NSaved= 7 IEnMin= 7 EnMin= -196.492312505592     IErMin= 7 ErrMin= 2.64D-06
 ErrMax= 2.64D-06 EMaxC= 1.00D-01 BMatC= 2.32D-09 BMatP= 8.16D-08
 IDIUse=1 WtCom= 1.00D+00 WtEn= 0.00D+00
 Coeff-Com:  0.243D-03-0.119D-02-0.415D-02-0.147D-01 0.454D-01 0.159D+00
 Coeff-Com:  0.816D+00
 Coeff:      0.243D-03-0.119D-02-0.415D-02-0.147D-01 0.454D-01 0.159D+00
 Coeff:      0.816D+00
 Gap=     0.301 Goal=   None    Shift=    0.000
 RMSDP=6.18D-07 MaxDP=2.40D-05 DE=-8.14D-08 OVMax= 2.99D-05

 Cycle   8  Pass 1  IDiag  1:
 RMSU=  2.45D-07    CP:  1.03D+00  1.09D+00  9.77D-01  1.16D+00  1.05D+00
                    CP:  1.08D+00  1.08D+00
 E= -196.492312509041     Delta-E=       -0.000000003449 Rises=F Damp=F
 DIIS: error= 1.30D-06 at cycle   8 NSaved=   8.
 NSaved= 8 IEnMin= 8 EnMin= -196.492312509041     IErMin= 8 ErrMin= 1.30D-06
 ErrMax= 1.30D-06 EMaxC= 1.00D-01 BMatC= 3.35D-10 BMatP= 2.32D-09
 IDIUse=1 WtCom= 1.00D+00 WtEn= 0.00D+00
 Coeff-Com: -0.376D-04 0.116D-02-0.259D-03-0.122D-01-0.278D-01-0.265D-01
 Coeff-Com:  0.263D+00 0.803D+00
 Coeff:     -0.376D-04 0.116D-02-0.259D-03-0.122D-01-0.278D-01-0.265D-01
 Coeff:      0.263D+00 0.803D+00
 Gap=     0.301 Goal=   None    Shift=    0.000
 RMSDP=2.27D-07 MaxDP=9.33D-06 DE=-3.45D-09 OVMax= 9.75D-06

 Cycle   9  Pass 1  IDiag  1:
 RMSU=  8.09D-08    CP:  1.03D+00  1.09D+00  9.77D-01  1.16D+00  1.06D+00
                    CP:  1.12D+00  1.18D+00  1.06D+00
 E= -196.492312509514     Delta-E=       -0.000000000473 Rises=F Damp=F
 DIIS: error= 2.98D-07 at cycle   9 NSaved=   9.
 NSaved= 9 IEnMin= 9 EnMin= -196.492312509514     IErMin= 9 ErrMin= 2.98D-07
 ErrMax= 2.98D-07 EMaxC= 1.00D-01 BMatC= 2.07D-11 BMatP= 3.35D-10
 IDIUse=1 WtCom= 1.00D+00 WtEn= 0.00D+00
 Coeff-Com: -0.254D-04 0.401D-03 0.236D-03-0.226D-02-0.110D-01-0.211D-01
 Coeff-Com:  0.165D-01 0.234D+00 0.783D+00
 Coeff:     -0.254D-04 0.401D-03 0.236D-03-0.226D-02-0.110D-01-0.211D-01
 Coeff:      0.165D-01 0.234D+00 0.783D+00
 Gap=     0.301 Goal=   None    Shift=    0.000
 RMSDP=6.78D-08 MaxDP=3.09D-06 DE=-4.73D-10 OVMax= 2.21D-06

 Cycle  10  Pass 1  IDiag  1:
 RMSU=  2.06D-08    CP:  1.03D+00  1.09D+00  9.77D-01  1.16D+00  1.06D+00
                    CP:  1.13D+00  1.21D+00  1.14D+00  1.13D+00
 E= -196.492312509542     Delta-E=       -0.000000000028 Rises=F Damp=F
 DIIS: error= 6.49D-08 at cycle  10 NSaved=  10.
 NSaved=10 IEnMin=10 EnMin= -196.492312509542     IErMin=10 ErrMin= 6.49D-08
 ErrMax= 6.49D-08 EMaxC= 1.00D-01 BMatC= 1.26D-12 BMatP= 2.07D-11
 IDIUse=1 WtCom= 1.00D+00 WtEn= 0.00D+00
 Coeff-Com: -0.299D-05-0.873D-05 0.901D-04 0.599D-03-0.101D-03-0.328D-02
 Coeff-Com: -0.198D-01-0.159D-01 0.184D+00 0.854D+00
 Coeff:     -0.299D-05-0.873D-05 0.901D-04 0.599D-03-0.101D-03-0.328D-02
 Coeff:     -0.198D-01-0.159D-01 0.184D+00 0.854D+00
 Gap=     0.301 Goal=   None    Shift=    0.000
 RMSDP=2.05D-08 MaxDP=1.02D-06 DE=-2.84D-11 OVMax= 7.04D-07

 Cycle  11  Pass 1  IDiag  1:
 RMSU=  4.47D-09    CP:  1.03D+00  1.09D+00  9.77D-01  1.16D+00  1.06D+00
                    CP:  1.14D+00  1.21D+00  1.17D+00  1.22D+00  1.08D+00
 E= -196.492312509545     Delta-E=       -0.000000000003 Rises=F Damp=F
 DIIS: error= 1.02D-08 at cycle  11 NSaved=  11.
 NSaved=11 IEnMin=11 EnMin= -196.492312509545     IErMin=11 ErrMin= 1.02D-08
 ErrMax= 1.02D-08 EMaxC= 1.00D-01 BMatC= 4.36D-14 BMatP= 1.26D-12
 IDIUse=1 WtCom= 1.00D+00 WtEn= 0.00D+00
 Coeff-Com:  0.649D-06-0.201D-04 0.771D-05 0.217D-03 0.497D-03 0.336D-03
 Coeff-Com: -0.445D-02-0.138D-01-0.129D-04 0.154D+00 0.863D+00
 Coeff:      0.649D-06-0.201D-04 0.771D-05 0.217D-03 0.497D-03 0.336D-03
 Coeff:     -0.445D-02-0.138D-01-0.129D-04 0.154D+00 0.863D+00
 Gap=     0.301 Goal=   None    Shift=    0.000
 RMSDP=4.07D-09 MaxDP=1.50D-07 DE=-2.84D-12 OVMax= 1.06D-07

 SCF Done:  E(RM062X) =  -196.492312510     A.U. after   11 cycles
             Convg  =    0.4068D-08             -V/T =  2.0047
 KE= 1.955636507675D+02 PE=-8.046292357720D+02 EE= 2.375727668267D+02
 Leave Link  502 at Tue Jun 12 12:10:46 2018, MaxMem=  671088640 cpu:     849.4
 (Enter /shared/apps/gaussian/G09_LINUX_LINDA/g09/l701.exe)
 Compute integral first derivatives.
 ... and contract with generalized density number  0.
 Leave Link  701 at Tue Jun 12 12:10:48 2018, MaxMem=  671088640 cpu:      19.8
 (Enter /shared/apps/gaussian/G09_LINUX_LINDA/g09/l702.exe)
 L702 exits ... SP integral derivatives will be done elsewhere.
 Leave Link  702 at Tue Jun 12 12:10:49 2018, MaxMem=  671088640 cpu:       0.2
 (Enter /shared/apps/gaussian/G09_LINUX_LINDA/g09/l703.exe)
 Compute integral first derivatives, UseDBF=F ICtDFT=           0.
 Integral derivatives from FoFDir, PRISM(SPDF).
 Calling FoFJK, ICntrl=      2127 FMM=F ISym2X=0 I1Cent= 0 IOpClX= 0 NMat=1 NMatS=1 NMatT=0.
 FoFCou: FMM=F IPFlag=           0 FMFlag=      100000 FMFlg1=         800
         NFxFlg=           0 DoJE=F BraDBF=F KetDBF=F FulRan=T
         Omega=  0.000000  0.000000  1.000000  0.000000  0.000000 ICntrl=    2127 IOpCl=  0
         NMat0=    1 NMatS0=    1 NMatT0=    0 NMatD0=    1 NMtDS0=    0 NMtDT0=    0
         I1Cent=           0 NGrid=           0.
 Symmetry not used in FoFCou.
 Leave Link  703 at Tue Jun 12 12:11:04 2018, MaxMem=  671088640 cpu:     149.6
 (Enter /shared/apps/gaussian/G09_LINUX_LINDA/g09/l716.exe)
 Dipole        =-6.11242969D-02 1.02501172D-01 9.01265266D-02
 ***** Axes restored to original set *****
 -------------------------------------------------------------------
 Center     Atomic                   Forces (Hartrees/Bohr)
 Number     Number              X              Y              Z
 -------------------------------------------------------------------
      1        6          -0.007551323   -0.000904986    0.023368646
      2        6           0.003336141   -0.001631563   -0.009434310
      3        6           0.007736600   -0.001571866   -0.004945729
      4        6           0.003410824    0.000177465    0.001117970
      5        6          -0.007924985    0.002629218    0.005783385
      6        1           0.002199414    0.000539235   -0.005703775
      7        1          -0.001286225    0.001850173   -0.003849630
      8        1          -0.002622685    0.000825425    0.002215613
      9        1          -0.003164714   -0.000449509   -0.001398087
     10        1           0.001261298   -0.000623282   -0.000671208
     11        1          -0.002298970    0.000079765   -0.002651836
     12        1           0.000299634    0.000650626    0.000169372
     13        1           0.002851163   -0.000310430    0.000277324
     14        1           0.001381557   -0.001211348   -0.002745939
     15        1           0.002372270   -0.000048924   -0.001531796
 -------------------------------------------------------------------
 Cartesian Forces:  Max     0.023368646 RMS     0.004794186
 Leave Link  716 at Tue Jun 12 12:11:04 2018, MaxMem=  671088640 cpu:       0.4
 (Enter /shared/apps/gaussian/G09_LINUX_LINDA/g09/l103.exe)

 GradGradGradGradGradGradGradGradGradGradGradGradGradGradGradGradGradGrad
 Berny optimization.
 Using GDIIS optimizer.
 Internal  Forces:  Max     0.005960398 RMS     0.002221393
 Search for a local minimum.
 Step number   2 out of a maximum of   70
 All quantities printed in internal units (Hartrees-Bohrs-Radians)
 Swaping is turned off.
 Update second derivatives using D2CorX and points    1    2
 DE= -9.02D-03 DEPred=-9.56D-03 R= 9.44D-01
 SS=  1.41D+00  RLast= 3.00D-01 DXNew= 5.0454D-01 9.0128D-01
 Trust test= 9.44D-01 RLast= 3.00D-01 DXMaxT set to 5.05D-01
 ITU=  1  0
     Eigenvalues ---    0.00753   0.01016   0.01091   0.01465   0.02093
     Eigenvalues ---    0.03044   0.06762   0.06979   0.07156   0.07342
     Eigenvalues ---    0.07443   0.07600   0.15130   0.15610   0.16000
     Eigenvalues ---    0.16000   0.16000   0.16000   0.16000   0.16000
     Eigenvalues ---    0.16000   0.16745   0.23030   0.24901   0.25040
     Eigenvalues ---    0.30866   0.31873   0.32206   0.32305   0.32580
     Eigenvalues ---    0.32731   0.32943   0.33039   0.33702   0.34362
     Eigenvalues ---    0.34386   0.34437   0.36863   0.59619
 DIIS coeff's:      1.44288     -0.44288
 Cosine:  1.000 >  0.970
 Length:  0.999
 GDIIS step was calculated using  2 of the last  2 vectors.
 Iteration  1 RMS(Cart)=  0.08906999 RMS(Int)=  0.00793394
 Iteration  2 RMS(Cart)=  0.01485425 RMS(Int)=  0.00320415
 Iteration  3 RMS(Cart)=  0.00014532 RMS(Int)=  0.00320279
 Iteration  4 RMS(Cart)=  0.00000022 RMS(Int)=  0.00320279
 Variable       Old X    -DE/DX   Delta X   Delta X   Delta X     New X
                                  (DIIS)     (GDIIS)  (Total)
    R1        2.52539  -0.00513   0.00238  -0.01515  -0.01277   2.51262
    R2        2.84673  -0.00018   0.02592  -0.03019  -0.00427   2.84246
    R3        2.05414  -0.00074  -0.00558   0.00324  -0.00234   2.05180
    R4        2.85406  -0.00230   0.00779  -0.01923  -0.01145   2.84261
    R5        2.83151   0.00135   0.01438  -0.01074   0.00364   2.83514
    R6        2.06877  -0.00242  -0.02045   0.01259  -0.00787   2.06091
    R7        2.06546  -0.00145  -0.01200   0.00741  -0.00459   2.06087
    R8        2.06586  -0.00247  -0.01331   0.00438  -0.00893   2.05694
    R9        2.06623  -0.00152  -0.01642   0.01208  -0.00433   2.06189
   R10        2.06219  -0.00172  -0.01232   0.00660  -0.00572   2.05648
   R11        2.06460  -0.00037  -0.00624   0.00555  -0.00070   2.06391
   R12        2.07078  -0.00171  -0.01541   0.01005  -0.00535   2.06543
   R13        2.05502  -0.00003  -0.00540   0.00601   0.00061   2.05563
   R14        2.07462  -0.00268  -0.01232   0.00221  -0.01011   2.06452
    A1        2.18223   0.00099   0.02957  -0.01147   0.00400   2.18623
    A2        2.01957   0.00173  -0.00604   0.05895   0.03885   2.05843
    A3        2.03273  -0.00087  -0.00298   0.02229   0.00514   2.03787
    A4        2.11893   0.00053  -0.00272   0.00608   0.00327   2.12220
    A5        2.15020  -0.00143  -0.00321  -0.00464  -0.00793   2.14226
    A6        2.01353   0.00089   0.00580  -0.00200   0.00370   2.01723
    A7        1.93014   0.00094   0.01001  -0.00709   0.00267   1.93281
    A8        1.98759  -0.00154   0.00169  -0.02290  -0.02142   1.96616
    A9        1.93976  -0.00202  -0.00094  -0.00819  -0.00921   1.93055
   A10        1.90672  -0.00202  -0.01875  -0.00881  -0.02791   1.87882
   A11        1.84357   0.00263   0.00673   0.02868   0.03529   1.87886
   A12        1.84895   0.00233   0.00107   0.02322   0.02425   1.87320
   A13        1.92757  -0.00021  -0.00543   0.00734   0.00168   1.92925
   A14        1.91779   0.00365   0.03174  -0.00724   0.02436   1.94216
   A15        1.95868  -0.00178  -0.00377  -0.01502  -0.01884   1.93984
   A16        1.88721  -0.00051  -0.00630   0.01212   0.00552   1.89273
   A17        1.86883   0.00027  -0.00325   0.00323  -0.00015   1.86867
   A18        1.90177  -0.00151  -0.01379   0.00079  -0.01295   1.88882
   A19        1.93607  -0.00067  -0.00802   0.00091  -0.00776   1.92832
   A20        1.99037  -0.00293  -0.00584  -0.02525  -0.03159   1.95879
   A21        1.90966   0.00190   0.02040  -0.00007   0.02033   1.92999
   A22        1.91059  -0.00050  -0.00830  -0.00962  -0.01897   1.89162
   A23        1.83599   0.00129   0.00267   0.02155   0.02409   1.86008
   A24        1.87374   0.00135   0.00100   0.01692   0.01803   1.89177
    D1       -2.91478  -0.00596  -0.05605  -0.18688  -0.24445   3.12396
    D2        0.26355  -0.00551  -0.05065  -0.16756  -0.21983   0.04372
    D3       -0.11632   0.00022  -0.00032   0.05689   0.05820  -0.05812
    D4        3.06201   0.00066   0.00509   0.07621   0.08282  -3.13836
    D5        0.93199   0.00155   0.01913   0.11139   0.12971   1.06170
    D6       -1.22287   0.00463   0.03480   0.14558   0.17936  -1.04351
    D7        2.97382   0.00414   0.03293   0.13738   0.16944  -3.13993
    D8       -1.86416  -0.00513  -0.03629  -0.14038  -0.17568  -2.03984
    D9        2.26416  -0.00205  -0.02061  -0.10619  -0.12603   2.13814
[...]
 ! R13   R(5,14)                 1.0859         -DE/DX =    0.0                 !
 ! R14   R(5,15)                 1.0927         -DE/DX =    0.0                 !
 ! A1    A(2,1,3)              128.1797         -DE/DX =    0.0                 !
 ! A2    A(2,1,6)              116.9517         -DE/DX =    0.0                 !
 ! A3    A(3,1,6)              114.8686         -DE/DX =    0.0                 !
 ! A4    A(1,2,4)              120.9859         -DE/DX =    0.0                 !
 ! A5    A(1,2,5)              125.0864         -DE/DX =    0.0                 !
 ! A6    A(4,2,5)              113.9278         -DE/DX =    0.0                 !
 ! A7    A(1,3,7)              110.6005         -DE/DX =    0.0                 !
 ! A8    A(1,3,8)              113.0044         -DE/DX =    0.0                 !
 ! A9    A(1,3,9)              110.6005         -DE/DX =    0.0                 !
 ! A10   A(7,3,8)              107.8301         -DE/DX =    0.0                 !
 ! A11   A(7,3,9)              106.7199         -DE/DX =    0.0                 !
 ! A12   A(8,3,9)              107.8301         -DE/DX =    0.0                 !
 ! A13   A(2,4,10)             110.6364         -DE/DX =    0.0                 !
 ! A14   A(2,4,11)             111.7712         -DE/DX =    0.0                 !
 ! A15   A(2,4,12)             110.6364         -DE/DX =    0.0                 !
 ! A16   A(10,4,11)            108.4673         -DE/DX =    0.0                 !
 ! A17   A(10,4,12)            106.6914         -DE/DX =    0.0                 !
 ! A18   A(11,4,12)            108.4673         -DE/DX =    0.0                 !
 ! A19   A(2,5,13)             110.0791         -DE/DX =    0.0                 !
 ! A20   A(2,5,14)             113.4948         -DE/DX =    0.0                 !
 ! A21   A(2,5,15)             110.0791         -DE/DX =    0.0                 !
 ! A22   A(13,5,14)            108.1677         -DE/DX =    0.0                 !
 ! A23   A(13,5,15)            106.5934         -DE/DX =    0.0                 !
 ! A24   A(14,5,15)            108.1677         -DE/DX =    0.0                 !
 ! D1    D(3,1,2,4)           -180.0            -DE/DX =    0.0                 !
 ! D2    D(3,1,2,5)              0.0            -DE/DX =    0.0                 !
 ! D3    D(6,1,2,4)              0.0            -DE/DX =    0.0                 !
 ! D4    D(6,1,2,5)            180.0            -DE/DX =    0.0                 !
 ! D5    D(2,1,3,7)            120.9946         -DE/DX =    0.0                 !
 ! D6    D(2,1,3,8)             -0.0003         -DE/DX =    0.0                 !
 ! D7    D(2,1,3,9)           -120.9951         -DE/DX =    0.0                 !
 ! D8    D(6,1,3,7)            -59.0054         -DE/DX =    0.0                 !
 ! D9    D(6,1,3,8)            179.9998         -DE/DX =    0.0                 !
 ! D10   D(6,1,3,9)             59.005          -DE/DX =    0.0                 !
 ! D11   D(1,2,4,10)           120.99           -DE/DX =    0.0                 !
 ! D12   D(1,2,4,11)             0.0            -DE/DX =    0.0                 !
 ! D13   D(1,2,4,12)          -120.99           -DE/DX =    0.0                 !
 ! D14   D(5,2,4,10)           -59.01           -DE/DX =    0.0                 !
 ! D15   D(5,2,4,11)          -180.0            -DE/DX =    0.0                 !
 ! D16   D(5,2,4,12)            59.01           -DE/DX =    0.0                 !
 ! D17   D(1,2,5,13)           121.3918         -DE/DX =    0.0                 !
 ! D18   D(1,2,5,14)             0.0            -DE/DX =    0.0                 !
 ! D19   D(1,2,5,15)          -121.3918         -DE/DX =    0.0                 !
 ! D20   D(4,2,5,13)           -58.6082         -DE/DX =    0.0                 !
 ! D21   D(4,2,5,14)          -180.0            -DE/DX =    0.0                 !
 ! D22   D(4,2,5,15)            58.6082         -DE/DX =    0.0                 !
 --------------------------------------------------------------------------------
 GradGradGradGradGradGradGradGradGradGradGradGradGradGradGradGradGradGrad

 Leave Link  103 at Tue Jun 12 13:22:55 2018, MaxMem=  671088640 cpu:      33.2
 (Enter /shared/apps/gaussian/G09_LINUX_LINDA/g09/l9999.exe)

 Test job not archived.
 1\1\GINC-COMPUTE-3-041\Freq\RM062X\6-311+G(2df,2p)\C5H10\ROOT\12-Jun-2
 018\0\\#P Geom=AllCheck Guess=TCheck SCRF=Check Test GenChk RM062X/6-3
 11+G(2df,2p) Freq\\Gaussian input prepared by ASE\\0,1\C,0.8483429769,
 -0.5721227752,0.1699456758\C,-0.4078671839,-0.1728947461,-0.016433141\
 C,2.0933762955,0.2607036484,0.1756304922\C,-1.5449594404,-1.1565753216
 ,0.0108822038\C,-0.8351133189,1.2455694866,-0.2667535715\H,1.007618681
 7,-1.6331692223,0.3408316315\H,2.6124374224,0.169118778,1.1317492336\H
 ,1.8993650985,1.3157384251,0.0020715341\H,2.7884786338,-0.0822797077,-
 0.5932455798\H,-2.264762118,-0.8916729883,0.7892821048\H,-1.1966553375
 ,-2.1711678658,0.1942882607\H,-2.0885937957,-1.1432521863,-0.936999501
 9\H,-1.3634388258,1.3154306715,-1.2206353751\H,-0.008756138,1.94975515
 35,-0.2850475645\H,-1.5394729502,1.5668186497,0.5043335931\\Version=EM
 64L-G09RevB.01\State=1-A\HF=-196.4983463\RMSD=7.479e-09\RMSF=3.475e-06
 \ZeroPoint=0.1370188\Thermal=0.1437774\Dipole=-0.0410624,0.0727628,-0.
 0147943\DipoleDeriv=0.1007397,0.040248,0.0313139,0.1540589,0.004344,-0
 .0233243,0.0147282,-0.0349389,-0.2569867,0.2016884,-0.0093119,0.043758
 2,-0.0502895,0.2131375,-0.0673521,0.04973,-0.0631703,-0.1995222,-0.072
 0266,-0.0390738,-0.0159264,-0.0130931,0.0118999,0.0173088,-0.0197139,0
 .0146578,0.1356905,-0.0151488,-0.0574638,-0.0075385,-0.0012444,-0.0225
 874,0.0236818,-0.0157316,0.0179445,0.1365624,-0.0175257,0.007342,-0.01
 69889,-0.0158676,-0.0753182,0.0295364,-0.0136063,0.0319048,0.1324271,0
 .0038448,-0.0123159,-0.0111354,0.0031402,-0.1317565,0.0385476,-0.01338
 79,0.0369702,0.1237948,-0.0374436,-0.0136971,-0.0543091,-0.0513678,0.0
 650847,0.0267597,-0.1106899,0.007387,-0.0657101,0.0378639,0.0485524,-0
 .0095833,-0.0215416,-0.1042392,0.022092,0.0006323,0.0292451,0.0582335,
 -0.0720926,0.0070902,0.0523902,-0.0085063,0.0448537,-0.0607402,0.11653
 41,-0.0359316,-0.0108297,-0.0715685,-0.0043745,0.0601589,0.0083957,0.0
 374521,-0.0636342,0.1213964,-0.026194,-0.02018,0.0222788,0.083148,-0.0
 168774,-0.0019556,-0.1061257,0.0253108,-0.0044748,0.0339957,0.0635096,
 -0.0346717,-0.0243726,-0.0565616,-0.0370943,0.0557274,0.0324887,-0.117
 8061,-0.0049565,-0.0753521,0.0084536,0.0274595,-0.0762585,0.0354988,0.
 0286313,-0.021984,-0.109407,0.0378894,-0.0672917,-0.0257763,-0.1117014
 ,0.0067266,-0.0636701,-0.0410056,0.009363,-0.0002733,0.0044614,0.06714
 8,-0.0286153,0.0584708,0.0708313,0.0635368,0.0199021,0.0119461,0.10206
 98,-0.0492647,-0.0214935\Polar=79.1351385,-1.4533124,59.8927317,3.3646
 944,-1.846543,48.8523156\PG=C01 [X(C5H10)]\NImag=0\\0.80027062,-0.0811
 9473,0.62053154,0.07836276,-0.07710046,0.16757592,-0.48625089,0.126437
 97,-0.06218640,0.80870689,0.11944535,-0.15007140,0.02568832,-0.0923572
 1,0.55100807,-0.06116731,0.02640192,-0.06753556,0.07667644,-0.06214682
 ,0.20612557,-0.18336963,-0.06719698,-0.00171835,-0.02599439,-0.0166161
 7,-0.00068323,0.50968707,-0.06858506,-0.14012407,0.00313727,0.00381305
 ,0.01184324,-0.00069132,-0.03192596,0.56936874,-0.00151601,0.00327901,
 -0.07120264,-0.00366047,-0.00277616,0.00446045,0.00194217,-0.00808494,
 0.53762463,-0.03339479,-0.02198466,-0.00081086,-0.15865472,-0.06479275
 ,0.00077166,-0.00018200,0.00224872,-0.00176135,0.52386819,0.00147315,0
 .00719281,-0.00003132,-0.06912104,-0.14590026,0.00346995,0.00276415,-0
 .00052872,0.00237993,-0.04724545,0.56452992,-0.00422948,-0.00242522,0.
 00586813,0.00140244,0.00391166,-0.07411518,-0.00183647,0.00232734,0.01
 333962,0.00521344,-0.00835974,0.54200119,-0.00675941,0.03276409,-0.006
 29292,-0.09684227,0.03180194,-0.00686112,0.00129806,0.00042081,0.00065
 978,0.00750171,-0.02500635,0.00407675,0.57220419,0.01050560,-0.0098560
 3,0.00369127,0.03093058,-0.20666041,0.02234035,-0.00113027,0.00061659,
 -0.00104581,0.00310498,-0.02812049,0.00489068,0.04647477,0.51716121,-0
 .00304907,0.00596278,0.00693593,-0.00673413,0.02242928,-0.07898098,0.0
 0088581,-0.00088752,-0.00554822,-0.00002005,0.00202190,0.00296733,-0.0
 0307983,0.00749043,0.53460917,-0.05924759,0.03456415,-0.00708638,-0.00
 501219,0.03079331,-0.00555995,0.00447600,-0.02663068,0.00407360,0.0000
 3045,0.00284351,0.00045217,-0.00409481,-0.00044237,-0.00156556,0.06788
 426,0.04021736,-0.31062210,0.04366463,0.00139130,-0.01174171,0.0026540
 0,0.00286114,-0.01471515,0.00281384,-0.00197858,0.00083725,-0.00155701
 ,0.00070375,0.00196487,0.00151649,-0.04000825,0.33287385,-0.00791026,0
 .04308770,-0.04625444,-0.00127504,0.00565450,0.00454098,-0.00022440,-0
 .00019584,0.00259482,0.00115492,-0.00106491,-0.00818803,-0.00173258,0.
 00139952,0.01149708,0.01012897,-0.04883951,0.03391564,-0.01849376,0.00
 301643,-0.02467894,-0.00034033,-0.00349972,-0.00007160,-0.09927757,0.0
 1229083,-0.10954096,-0.00101979,0.00069077,0.00224065,-0.00006385,-0.0
 0031537,-0.00094226,0.00077379,-0.00009999,0.00077608,0.11257334,-0.00
 950536,0.00271278,-0.01747010,-0.00038431,-0.00197199,0.00018712,0.010
 91743,-0.05003160,0.02074601,-0.00048956,0.00060768,0.00135242,0.00004
 785,-0.00049209,-0.00015902,0.00067634,0.00022373,0.00035306,-0.009859
 85,0.04962589,-0.00018823,-0.00074176,0.00373316,0.00128628,-0.0005793
 4,0.00025987,-0.10777814,0.02213381,-0.24928154,-0.00009718,0.00000063
 ,-0.00019753,-0.00001495,0.00008882,-0.00012600,-0.00051470,-0.0003889
 1,0.00019518,0.11886378,-0.02340868,0.27037570,0.00938255,-0.02846213,
 0.00526252,0.00128232,0.00072397,0.00003602,-0.05698932,0.05131151,-0.
 00849239,-0.00008403,0.00016855,-0.00003143,-0.00161660,0.00007607,-0.
 00013499,-0.00455200,-0.00300436,-0.00017912,-0.00367673,0.01403282,-0
 .00080149,0.06364259,0.00319872,-0.01781959,0.00269925,0.00149151,-0.0
 0036175,0.00018968,0.04897467,-0.30188865,0.04213782,-0.00018156,0.000
 08344,-0.00003314,0.00076734,-0.00031815,0.00006602,-0.00295618,-0.000
 23117,-0.00005031,0.00045427,-0.00143942,0.00034644,-0.05580198,0.3292
 1053,0.00064829,-0.00053185,-0.00139448,-0.00007583,0.00011136,-0.0001
 2856,-0.00815181,0.04237632,-0.05405785,0.00001960,0.00000259,-0.00001
 518,-0.00023573,-0.00000452,-0.00042587,-0.00018615,-0.00005524,0.0014
 8267,-0.00495612,0.02857722,-0.00338180,0.01008155,-0.04718162,0.05244
 911,-0.02271380,0.00900219,0.01801410,-0.00019472,-0.00345112,0.001011
 97,-0.14633491,0.05504121,0.11884014,-0.00055735,0.00001587,-0.0024610
 8,-0.00026014,-0.00002571,0.00096794,0.00081744,-0.00037066,-0.0005782
 5,0.00996485,-0.00536133,-0.01071896,-0.00420516,0.00168414,0.00361519
 ,0.16395679,-0.01298028,0.00773337,0.01466397,-0.00075891,-0.00180352,
 0.00027217,0.05297952,-0.07518186,-0.05906537,-0.00016410,0.00016362,-
 0.00159363,0.00000421,-0.00044310,0.00028771,0.00086950,0.00024545,-0.
 00021634,-0.00241144,0.00020393,0.00268946,0.01884090,-0.00898434,-0.0
 2338203,-0.05630898,0.07750065,-0.00144806,0.00145685,0.00293259,-0.00
 119229,0.00044596,-0.00005425,0.11757799,-0.06010257,-0.17707363,0.000
 07497,-0.00010302,-0.00021591,-0.00001667,-0.00000023,0.00002130,0.000
 41866,0.00031984,0.00012985,0.01846031,-0.01007507,-0.02147997,-0.0050
 1876,0.00171211,0.00469155,-0.12884043,0.06644861,0.19111718,-0.000907
 22,-0.00319107,0.00068571,-0.02108401,0.00581884,0.01711515,-0.0004581
 7,-0.00002583,-0.00235459,-0.15481402,0.04437870,0.12447759,0.00056283
 ,0.00115337,-0.00038766,-0.00017285,-0.00002682,0.00130140,-0.00056805
 ,-0.00042633,0.00005077,-0.00005056,-0.00012220,0.00001463,0.00021942,
 0.00012677,0.00006849,0.17260202,-0.00086530,-0.00180366,0.00018054,-0
 .01383601,0.00616329,0.01690063,-0.00041152,0.00032621,-0.00160719,0.0
 4252154,-0.06635122,-0.04613634,-0.00011373,0.00109264,0.00006781,-0.0
 0022561,0.00027754,0.00011486,-0.00043147,-0.00024585,0.00002120,0.000
 04286,0.00000036,0.00007093,0.00012160,-0.00000812,0.00007275,-0.04447
 358,0.06756372,-0.00088902,0.00033165,0.00007101,-0.00057546,0.0004547
 0,0.00199816,0.00003393,-0.00020499,-0.00031264,0.12357985,-0.04684963
 ,-0.18085198,-0.00017014,-0.00002271,0.00010691,-0.00009158,0.00000974
 ,0.00024602,-0.00005897,0.00004752,-0.00004341,0.00002861,0.00004490,-
 0.00000485,0.00008289,0.00006860,-0.00003167,-0.13580436,0.05214045,0.
 19542317,0.00076517,-0.00172617,0.00038670,0.00891702,-0.02346795,0.00
 452364,0.00013211,0.00027207,-0.00001094,-0.07737559,0.08545917,-0.015
 48204,-0.00361356,-0.00250599,-0.00008969,-0.00048349,0.00028466,-0.00
 013301,0.00003305,-0.00002011,0.00000291,0.00014225,0.00000073,0.00001
 503,0.00002437,-0.00002412,0.00000960,-0.00681931,0.01816974,-0.005202
 10,0.08367888,0.00257290,0.00105384,0.00002752,0.00845836,-0.02015321,
 0.00352379,-0.00037461,0.00048279,-0.00013034,0.08195620,-0.27997872,0
 .04221370,-0.00471775,-0.00163693,-0.00011989,-0.00087344,0.00105935,-
 0.00018327,-0.00006296,-0.00006249,0.00000581,0.00021343,0.00020166,-0
 .00000849,-0.00005089,-0.00005627,-0.00000040,0.00173484,-0.00601862,0
 .00112336,-0.08883108,0.30447208,-0.00023983,-0.00041120,-0.00052354,-
 0.00012913,0.00026569,-0.00194860,0.00008331,-0.00006434,-0.00013138,-
 0.01497154,0.04257118,-0.05543926,0.00023264,0.00010582,0.00085232,0.0
 0003576,-0.00006509,0.00042654,-0.00002777,-0.00001837,-0.00000197,-0.
 00001597,-0.00003019,-0.00000326,0.00005042,0.00003087,0.00000050,0.00
 684547,-0.02221661,0.00491894,0.01682859,-0.04678742,0.05416686,-0.001
 02076,-0.00321154,0.00001521,-0.01707927,0.00012563,-0.02244388,-0.000
 92436,0.00061515,0.00219315,-0.10575041,0.00336410,-0.11370391,0.00046
 693,0.00122508,0.00010972,0.00007201,-0.00039621,-0.00127943,0.0002465
 7,0.00012088,-0.00005146,-0.00004193,-0.00011187,0.00000841,-0.0005726
 7,-0.00042684,-0.00003672,0.01086478,-0.00065584,0.01897493,-0.0055986
 7,-0.00051963,-0.00852375,0.11884003,-0.00061348,-0.00190251,0.0002592
 3,-0.01007142,0.00075036,-0.01953708,-0.00069911,0.00077230,0.00124017
 ,0.00201566,-0.04999331,0.00434193,-0.00000782,0.00103459,-0.00033824,
 -0.00016846,0.00022407,-0.00018621,0.00011278,-0.00004247,-0.00004940,
 0.00004427,-0.00003403,-0.00005479,-0.00040588,-0.00027222,-0.00003989
 ,-0.00422443,-0.00071614,-0.00766645,0.01369297,0.00110467,0.02651840,
 0.00028722,0.04936143,0.00087236,-0.00039436,0.00028340,-0.00040280,-0
 .00004474,0.00340635,0.00005237,0.00001145,-0.00029252,-0.11233901,0.0
 0538235,-0.24627351,0.00025654,0.00000741,0.00026087,0.00010933,-0.000
 08404,0.00005463,-0.00006393,-0.00004389,-0.00002447,-0.00005239,-0.00
 006154,0.00002090,0.00007071,-0.00006783,-0.00001241,-0.01146252,0.000
 83139,-0.02157641,-0.00094258,0.00005083,-0.00342500,0.12393180,-0.005
 06579,0.26738746,0.00105389,0.00106965,-0.00024187,-0.00835462,0.00388
 329,-0.00910636,-0.00014252,0.00000348,-0.00049917,0.00018497,-0.00061
 823,0.00051976,-0.10523466,0.00269716,-0.11148586,-0.00040591,0.000373
 87,0.00056865,-0.00019244,0.00026469,-0.00000228,0.00025017,0.00018871
 ,-0.00005930,-0.00000508,-0.00002144,0.00003036,0.00006648,-0.00000066
 ,0.00013003,-0.00011469,0.00004886,0.00025395,0.00046853,-0.00007866,-
 0.00005551,0.11321971,-0.00098335,-0.00404558,0.00012279,0.01719889,-0
 .00300034,0.02953731,-0.00024220,-0.00024029,0.00082996,0.00068530,0.0
 0125910,0.00002917,0.00429386,-0.04667861,0.01338675,0.00106414,-0.000
 62926,-0.00220977,0.00012124,0.00029148,0.00000235,0.00015065,0.000339
 51,0.00003813,0.00004453,0.00013489,-0.00001194,-0.00007225,-0.0000502
 4,-0.00006270,0.00008942,0.00032285,-0.00039972,-0.00059595,-0.0005146
 0,-0.00041887,-0.00856855,0.05196973,0.00147326,0.00049064,0.00005678,
 -0.00341974,0.00169633,-0.00255340,-0.00004089,0.00004346,-0.00005859,
 0.00004547,-0.00033834,0.00032902,-0.11102214,0.01157733,-0.24702842,-
 0.00012266,0.00009159,0.00008312,0.00001045,-0.00007798,-0.00000914,-0
 .00000292,-0.00001614,-0.00001879,-0.00006000,-0.00006435,-0.00000293,
 -0.00006683,-0.00001230,-0.00019666,0.00011908,0.00001882,0.00035772,0
 .00028286,0.00039530,0.00011148,0.12282410,-0.01402440,0.26853181,-0.0
 0056963,-0.00097346,0.00011438,0.01067866,0.00552382,0.00050937,-0.001
 67459,0.00101557,-0.00028840,-0.00005381,0.00159976,-0.00031982,-0.210
 02050,-0.13614533,0.00321669,0.00018684,-0.00014308,0.00004159,0.00005
 132,0.00002404,-0.00001463,-0.00372093,0.00220577,-0.00078989,0.000033
 77,0.00003742,0.00001631,0.00008004,0.00014422,-0.00018266,0.00033422,
 0.00047690,-0.00009874,-0.00003663,0.00014375,0.00009586,-0.01125928,-
 0.00816880,0.00137727,0.23096733,-0.00128743,0.00090830,-0.00030752,-0
 .02566149,-0.01735507,-0.00041030,0.00016928,-0.00023501,0.00000799,0.
 00364063,-0.00506605,0.00122578,-0.13355605,-0.16018777,0.00284885,-0.
 00008977,0.00019556,-0.00004005,-0.00006611,0.00047511,-0.00009984,0.0
 0149642,0.00092684,0.00014432,-0.00005040,0.00046935,-0.00005249,0.000
 07844,0.00024799,0.00013210,-0.00135558,-0.00122023,0.00012995,0.00022
 878,0.00027190,-0.00010616,0.00225180,0.00108491,-0.00070118,0.1463877
 5,0.17306543,0.00016014,-0.00027547,-0.00024379,0.00505415,0.00277218,
 -0.00208926,-0.00016507,0.00009434,-0.00032939,-0.00061725,0.00101751,
 0.00058434,0.00283934,0.00258461,-0.04720399,0.00003382,-0.00004549,-0
 .00000628,-0.00005550,-0.00002534,-0.00001004,-0.00068650,0.00021671,0
 .00076764,0.00008311,-0.00010881,0.00001326,-0.00047247,-0.00019594,0.
 00018868,0.00016832,0.00031696,0.00059169,0.00038286,0.00021992,0.0002
 8145,-0.02192336,-0.01878579,0.00185413,-0.00236005,-0.00371840,0.0453
 4372,0.00125525,0.00108627,0.00017435,-0.00977749,0.00606880,0.0052491
 9,-0.00024577,0.00013512,0.00041546,0.00030120,-0.00076664,-0.00031856
 ,-0.15352792,0.04439741,0.12230893,-0.00027196,0.00019587,-0.00065952,
 -0.00001041,-0.00003721,-0.00002170,0.00023737,0.00020793,0.00005213,-
 0.00017281,0.00023779,-0.00010376,0.00047862,0.00001376,0.00014405,-0.
 00002179,-0.00003112,-0.00032344,0.00006585,-0.00002740,-0.00007024,0.
 01046544,-0.00501693,-0.01139732,-0.01499683,0.00781373,0.01755845,0.1
 6622124,-0.00139810,-0.00388770,0.00077459,0.02246873,-0.01074529,-0.0
 2269140,-0.00006938,-0.00046450,-0.00072491,0.00066361,0.00126496,-0.0
 0018760,0.04612309,-0.06747631,-0.05457335,0.00058380,0.00003771,0.002
 37655,0.00006061,0.00014532,-0.00002059,0.00016703,0.00031476,-0.00010
 232,0.00011543,0.00029817,-0.00007051,-0.00072846,-0.00047792,0.000453
 45,-0.00003775,0.00042923,0.00037103,-0.00004895,-0.00004404,0.0000038
 0,-0.00149397,-0.00024356,0.00092120,-0.01212832,0.00641874,0.01593303
 ,-0.05427737,0.07443042,-0.00087953,0.00086978,-0.00030247,-0.00476802
 ,0.00211709,0.00661441,0.00002278,0.00010752,0.00026887,-0.00024268,-0
 .00009908,0.00020693,0.12136103,-0.05310297,-0.17793742,-0.00012534,-0
 .00003484,-0.00071780,0.00004479,0.00001511,-0.00000803,0.00000727,-0.
 00004000,0.00001876,-0.00007775,0.00003695,-0.00003546,-0.00001077,-0.
 00023218,0.00006472,-0.00019351,-0.00005097,0.00015843,0.00014020,-0.0
 0003710,-0.00020222,0.01904685,-0.00803328,-0.02145613,-0.00131729,0.0
 0094694,0.00025784,-0.13300803,0.05753702,0.19306958\\-0.00000205,-0.0
 0000244,0.00000014,-0.00000059,0.00000123,-0.00000024,0.00000076,-0.00
 000582,0.00000094,-0.00000324,0.00000444,-0.00000098,0.00000354,0.0000
 0240,0.00000001,-0.00000470,-0.00000311,-0.00000003,0.00000007,-0.0000
 0773,0.00000120,0.00000371,-0.00000534,0.00000115,0.00000009,-0.000007
 74,0.00000106,-0.00000277,0.00000615,-0.00000125,-0.00000623,0.0000033
 3,-0.00000112,-0.00000279,0.00000617,-0.00000111,0.00000429,0.00000420
 ,-0.00000010,0.00000561,0.00000010,0.00000056,0.00000430,0.00000417,-0
 .00000025\\\@


 LAW OF COMPENSATION:
      NO CALCULATION IS EVER A COMPLETE FAILURE; IT 
      CAN ALWAYS SERVE AS A BAD EXAMPLE.

                                           -- ANON
 Job cpu time:  0 days  1 hours 44 minutes 18.1 seconds.
 File lengths (MBytes):  RWF=    135 Int=      0 D2E=      0 Chk=      6 Scr=      1
 Normal termination of Gaussian 09 at Tue Jun 12 13:22:55 2018.
