 Entering Gaussian System, Link 0=g09
 Initial command:
 /shared/apps/gaussian/G09_LINUX_LINDA/g09/l1.exe /home/harms.n/Code/AutoTST/discovery_test/test/Gau-29913.inp -scrdir=/home/harms.n/Code/AutoTST/discovery_test/test/
 Entering Link 1 = /shared/apps/gaussian/G09_LINUX_LINDA/g09/l1.exe PID=     29914.
  
 Copyright (c) 1988,1990,1992,1993,1995,1998,2003,2009,2010,
            Gaussian, Inc.  All Rights Reserved.
  
 This is part of the Gaussian(R) 09 program.  It is based on
 the Gaussian(R) 03 system (copyright 2003, Gaussian, Inc.),
 the Gaussian(R) 98 system (copyright 1998, Gaussian, Inc.),
 the Gaussian(R) 94 system (copyright 1995, Gaussian, Inc.),
 the Gaussian 92(TM) system (copyright 1992, Gaussian, Inc.),
 the Gaussian 90(TM) system (copyright 1990, Gaussian, Inc.),
 the Gaussian 88(TM) system (copyright 1988, Gaussian, Inc.),
 the Gaussian 86(TM) system (copyright 1986, Carnegie Mellon
 University), and the Gaussian 82(TM) system (copyright 1983,
 Carnegie Mellon University). Gaussian is a federally registered
 trademark of Gaussian, Inc.
  
 This software contains proprietary and confidential information,
 including trade secrets, belonging to Gaussian, Inc.
  
 This software is provided under written license and may be
 used, copied, transmitted, or stored only in accord with that
 written license.
  
 The following legend is applicable only to US Government
 contracts under FAR:
  
                    RESTRICTED RIGHTS LEGEND
  
 Use, reproduction and disclosure by the US Government is
 subject to restrictions as set forth in subparagraphs (a)
 and (c) of the Commercial Computer Software - Restricted
 Rights clause in FAR 52.227-19.
  
 Gaussian, Inc.
 340 Quinnipiac St., Bldg. 40, Wallingford CT 06492
  
  
 ---------------------------------------------------------------
 Warning -- This program may not be used in any manner that
 competes with the business of Gaussian, Inc. or will provide
 assistance to any competitor of Gaussian, Inc.  The licensee
 of this program is prohibited from giving any competitor of
 Gaussian, Inc. access to this program.  By using this program,
 the user acknowledges that Gaussian, Inc. is engaged in the
 business of creating and licensing software in the field of
 computational chemistry and represents and warrants to the
 licensee that it is not a competitor of Gaussian, Inc. and that
 it will not use this program in any manner prohibited above.
 ---------------------------------------------------------------
  

 Cite this work as:
 Gaussian 09, Revision B.01,
 M. J. Frisch, G. W. Trucks, H. B. Schlegel, G. E. Scuseria, 
 M. A. Robb, J. R. Cheeseman, G. Scalmani, V. Barone, B. Mennucci, 
 G. A. Petersson, H. Nakatsuji, M. Caricato, X. Li, H. P. Hratchian, 
 A. F. Izmaylov, J. Bloino, G. Zheng, J. L. Sonnenberg, M. Hada, 
 M. Ehara, K. Toyota, R. Fukuda, J. Hasegawa, M. Ishida, T. Nakajima, 
 Y. Honda, O. Kitao, H. Nakai, T. Vreven, J. A. Montgomery, Jr., 
 J. E. Peralta, F. Ogliaro, M. Bearpark, J. J. Heyd, E. Brothers, 
 K. N. Kudin, V. N. Staroverov, T. Keith, R. Kobayashi, J. Normand, 
 K. Raghavachari, A. Rendell, J. C. Burant, S. S. Iyengar, J. Tomasi, 
 M. Cossi, N. Rega, J. M. Millam, M. Klene, J. E. Knox, J. B. Cross, 
 V. Bakken, C. Adamo, J. Jaramillo, R. Gomperts, R. E. Stratmann, 
 O. Yazyev, A. J. Austin, R. Cammi, C. Pomelli, J. W. Ochterski, 
 R. L. Martin, K. Morokuma, V. G. Zakrzewski, G. A. Voth, 
 P. Salvador, J. J. Dannenberg, S. Dapprich, A. D. Daniels, 
 O. Farkas, J. B. Foresman, J. V. Ortiz, J. Cioslowski, 
 and D. J. Fox, Gaussian, Inc., Wallingford CT, 2010.
 
 ******************************************
 Gaussian 09:  EM64L-G09RevB.01 12-Aug-2010
                12-Jun-2018 
 ******************************************
 %nprocshared=20
 Will use up to   20 processors via shared memory.
 %mem=5GB
 -------------------------------------------------------------
 #p m062x/6-311+g(2df,2p) opt=(ts,calcfc,noeigentest,ModRedun)
 -------------------------------------------------------------
 1/5=1,10=4,11=1,14=-1,18=120,26=3,38=1/1,3;
 2/9=110,12=2,17=6,18=5,40=1/2;
 3/5=4,6=6,7=214,11=2,16=1,25=1,30=1,71=2,74=-55/1,2,3;
 4//1;
 5/5=2,38=5/2;
 8/6=4,10=90,11=11/1;
 11/6=1,8=1,9=11,15=111,16=1/1,2,10;
 10/6=1,7=6,13=1/2;
 6/7=2,8=2,9=2,10=2,28=1/1;
 7/10=1,18=20,25=1/1,2,3,16;
 1/5=1,10=4,11=1,14=-1,18=20/3(2);
 2/9=110/2;
 99//99;
 2/9=110/2;
 3/5=4,6=6,7=214,11=2,16=1,25=1,30=1,71=1,74=-55/1,2,3;
 4/5=5,16=3/1;
 5/5=2,38=5/2;
 7//1,2,3,16;
 1/5=1,11=1,14=-1,18=20/3(-5);
 2/9=110/2;
 6/7=2,8=2,9=2,10=2,19=2,28=1/1;
 99/9=1/99;
 Leave Link    1 at Tue Jun 12 20:32:52 2018, MaxMem=  671088640 cpu:       1.2
 (Enter /shared/apps/gaussian/G09_LINUX_LINDA/g09/l101.exe)
 ------------------------------
 Gaussian input prepared by ASE
 ------------------------------
 Symbolic Z-matrix:
 Charge =  0 Multiplicity = 2
 O                    -2.6943   -0.0049    0.1335 
 O                    -3.4761   -1.0578    0.0243 
 C                     0.3373    0.5562   -0.9851 
 C                     0.988    -0.1118   -0.0102 
 C                    -0.8219    1.4737   -0.7225 
 C                     0.5888    0.0224    1.4402 
 C                     2.1386   -1.0073   -0.3899 
 H                    -2.9758   -1.7857    0.4721 
 H                     0.6556    0.4338   -2.0175 
 H                    -1.8047    0.809    -0.165 
 H                    -1.1838    1.901    -1.6811 
 H                    -0.5085    2.3076   -0.0602 
 H                     0.6792    1.0811    1.7621 
 H                    -0.4591   -0.3171    1.5781 
 H                     1.2367   -0.5919    2.0994 
 H                     2.928    -0.4105   -0.8941 
 H                     2.5877   -1.4978    0.4986 
 H                     1.7844   -1.7998   -1.0827 
 
 NAtoms=     18 NQM=     18 NQMF=      0 NMic=      0 NMicF=      0 NTot=     18.
 The following ModRedundant input section has been read:
 B       2       3 F                                                           
 B       2       4 F                                                           
 B       2       6 F                                                           
 B       2       7 F                                                           
 B       2       8 F                                                           
 B       2       9 F                                                           
 B       2      11 F                                                           
 B       2      12 F                                                           
 B       2      13 F                                                           
 B       2      14 F                                                           
 B       2      15 F                                                           
 B       2      16 F                                                           
 B       2      17 F                                                           
 B       2      18 F                                                           
 B       3       4 F                                                           
 B       3       6 F                                                           
 B       3       7 F                                                           
 B       3       8 F                                                           
 B       3       9 F                                                           
 B       3      11 F                                                           
 B       3      12 F                                                           
 B       3      13 F                                                           
 B       3      14 F                                                           
 B       3      15 F                                                           
 B       3      16 F                                                           
 B       3      17 F                                                           
 B       3      18 F                                                           
 B       4       6 F                                                           
 B       4       7 F                                                           
 B       4       8 F                                                           
 B       4       9 F                                                           
 B       4      11 F                                                           
 B       4      12 F                                                           
 B       4      13 F                                                           
 B       4      14 F                                                           
 B       4      15 F                                                           
 B       4      16 F                                                           
 B       4      17 F                                                           
 B       4      18 F                                                           
 B       6       7 F                                                           
 B       6       8 F                                                           
 B       6       9 F                                                           
 B       6      11 F                                                           
 B       6      12 F                                                           
 B       6      13 F                                                           
 B       6      14 F                                                           
 B       6      15 F                                                           
 B       6      16 F                                                           
 B       6      17 F                                                           
 B       6      18 F                                                           
 B       7       8 F                                                           
 B       7       9 F                                                           
 B       7      11 F                                                           
 B       7      12 F                                                           
 B       7      13 F                                                           
 B       7      14 F                                                           
 B       7      15 F                                                           
 B       7      16 F                                                           
 B       7      17 F                                                           
 B       7      18 F                                                           
 B       8       9 F                                                           
 B       8      11 F                                                           
 B       8      12 F                                                           
 B       8      13 F                                                           
 B       8      14 F                                                           
 B       8      15 F                                                           
 B       8      16 F                                                           
 B       8      17 F                                                           
 B       8      18 F                                                           
 B       9      11 F                                                           
 B       9      12 F                                                           
 B       9      13 F                                                           
 B       9      14 F                                                           
 B       9      15 F                                                           
 B       9      16 F                                                           
 B       9      17 F                                                           
 B       9      18 F                                                           
 B      11      12 F                                                           
 B      11      13 F                                                           
 B      11      14 F                                                           
 B      11      15 F                                                           
 B      11      16 F                                                           
 B      11      17 F                                                           
 B      11      18 F                                                           
 B      12      13 F                                                           
 B      12      14 F                                                           
 B      12      15 F                                                           
 B      12      16 F                                                           
 B      12      17 F                                                           
 B      12      18 F                                                           
 B      13      14 F                                                           
 B      13      15 F                                                           
 B      13      16 F                                                           
 B      13      17 F                                                           
 B      13      18 F                                                           
 B      14      15 F                                                           
 B      14      16 F                                                           
 B      14      17 F                                                           
 B      14      18 F                                                           
 B      15      16 F                                                           
 B      15      17 F                                                           
 B      15      18 F                                                           
 B      16      17 F                                                           
 B      16      18 F                                                           
 B      17      18 F                                                           
                    Isotopes and Nuclear Properties:
 (Nuclear quadrupole moments (NQMom) in fm**2, nuclear magnetic moments (NMagM)
  in nuclear magnetons)

  Atom         1           2           3           4           5           6           7           8           9          10
 IAtWgt=          16          16          12          12          12          12          12           1           1           1
 AtmWgt=  15.9949146  15.9949146  12.0000000  12.0000000  12.0000000  12.0000000  12.0000000   1.0078250   1.0078250   1.0078250
 NucSpn=           0           0           0           0           0           0           0           1           1           1
 AtZEff=   0.0000000   0.0000000   0.0000000   0.0000000   0.0000000   0.0000000   0.0000000   0.0000000   0.0000000   0.0000000
 NQMom=    0.0000000   0.0000000   0.0000000   0.0000000   0.0000000   0.0000000   0.0000000   0.0000000   0.0000000   0.0000000
 NMagM=    0.0000000   0.0000000   0.0000000   0.0000000   0.0000000   0.0000000   0.0000000   2.7928460   2.7928460   2.7928460

  Atom        11          12          13          14          15          16          17          18
 IAtWgt=           1           1           1           1           1           1           1           1
 AtmWgt=   1.0078250   1.0078250   1.0078250   1.0078250   1.0078250   1.0078250   1.0078250   1.0078250
 NucSpn=           1           1           1           1           1           1           1           1
 AtZEff=   0.0000000   0.0000000   0.0000000   0.0000000   0.0000000   0.0000000   0.0000000   0.0000000
 NQMom=    0.0000000   0.0000000   0.0000000   0.0000000   0.0000000   0.0000000   0.0000000   0.0000000
 NMagM=    2.7928460   2.7928460   2.7928460   2.7928460   2.7928460   2.7928460   2.7928460   2.7928460
 Leave Link  101 at Tue Jun 12 20:32:52 2018, MaxMem=  671088640 cpu:       1.5
 (Enter /shared/apps/gaussian/G09_LINUX_LINDA/g09/l103.exe)

 GradGradGradGradGradGradGradGradGradGradGradGradGradGradGradGradGradGrad
 Berny optimization.
 Initialization pass.
                           ----------------------------
                           !    Initial Parameters    !
                           ! (Angstroms and Degrees)  !
 --------------------------                            --------------------------
 ! Name  Definition              Value          Derivative Info.                !
 --------------------------------------------------------------------------------
 ! R1    R(1,2)                  1.316          calculate D2E/DX2 analytically  !
 ! R2    R(1,10)                 1.2421         calculate D2E/DX2 analytically  !
 ! R3    R(2,3)                  4.2621         frozen, calculate D2E/DX2 analyt!
 ! R4    R(2,4)                  4.5634         frozen, calculate D2E/DX2 analyt!
 ! R5    R(2,6)                  4.4379         frozen, calculate D2E/DX2 analyt!
 ! R6    R(2,7)                  5.6302         frozen, calculate D2E/DX2 analyt!
 ! R7    R(2,8)                  0.9903         frozen, calculate D2E/DX2 analyt!
 ! R8    R(2,9)                  4.844          frozen, calculate D2E/DX2 analyt!
 ! R9    R(2,11)                 4.1131         frozen, calculate D2E/DX2 analyt!
 ! R10   R(2,12)                 4.4877         frozen, calculate D2E/DX2 analyt!
 ! R11   R(2,13)                 4.9861         frozen, calculate D2E/DX2 analyt!
 ! R12   R(2,14)                 3.4735         frozen, calculate D2E/DX2 analyt!
 ! R13   R(2,15)                 5.1705         frozen, calculate D2E/DX2 analyt!
 ! R14   R(2,16)                 6.5019         frozen, calculate D2E/DX2 analyt!
 ! R15   R(2,17)                 6.0982         frozen, calculate D2E/DX2 analyt!
 ! R16   R(2,18)                 5.4267         frozen, calculate D2E/DX2 analyt!
 ! R17   R(3,4)                  1.3491         frozen, calculate D2E/DX2 analyt!
 ! R18   R(3,5)                  1.5015         calculate D2E/DX2 analytically  !
 ! R19   R(3,6)                  2.4961         frozen, calculate D2E/DX2 analyt!
 ! R20   R(3,7)                  2.4583         frozen, calculate D2E/DX2 analyt!
 ! R21   R(3,8)                  4.311          frozen, calculate D2E/DX2 analyt!
 ! R22   R(3,9)                  1.0873         frozen, calculate D2E/DX2 analyt!
 ! R23   R(3,11)                 2.1463         frozen, calculate D2E/DX2 analyt!
 ! R24   R(3,12)                 2.1537         frozen, calculate D2E/DX2 analyt!
 ! R25   R(3,13)                 2.8177         frozen, calculate D2E/DX2 analyt!
 ! R26   R(3,14)                 2.8226         frozen, calculate D2E/DX2 analyt!
 ! R27   R(3,15)                 3.4119         frozen, calculate D2E/DX2 analyt!
 ! R28   R(3,16)                 2.7667         frozen, calculate D2E/DX2 analyt!
 ! R29   R(3,17)                 3.3889         frozen, calculate D2E/DX2 analyt!
 ! R30   R(3,18)                 2.7667         frozen, calculate D2E/DX2 analyt!
 ! R31   R(4,6)                  1.5103         frozen, calculate D2E/DX2 analyt!
 ! R32   R(4,7)                  1.5066         frozen, calculate D2E/DX2 analyt!
 ! R33   R(4,8)                  4.3297         frozen, calculate D2E/DX2 analyt!
 ! R34   R(4,9)                  2.1065         frozen, calculate D2E/DX2 analyt!
 ! R35   R(4,11)                 3.4            frozen, calculate D2E/DX2 analyt!
 ! R36   R(4,12)                 2.8453         frozen, calculate D2E/DX2 analyt!
 ! R37   R(4,13)                 2.1586         frozen, calculate D2E/DX2 analyt!
 ! R38   R(4,14)                 2.1585         frozen, calculate D2E/DX2 analyt!
 ! R39   R(4,15)                 2.1778         frozen, calculate D2E/DX2 analyt!
 ! R40   R(4,16)                 2.1527         frozen, calculate D2E/DX2 analyt!
 ! R41   R(4,17)                 2.1769         frozen, calculate D2E/DX2 analyt!
 ! R42   R(4,18)                 2.1526         frozen, calculate D2E/DX2 analyt!
 ! R43   R(5,10)                 1.3109         calculate D2E/DX2 analytically  !
 ! R44   R(5,11)                 1.1102         calculate D2E/DX2 analytically  !
 ! R45   R(5,12)                 1.1101         calculate D2E/DX2 analytically  !
 ! R46   R(6,7)                  2.6099         frozen, calculate D2E/DX2 analyt!
 ! R47   R(6,8)                  4.1125         frozen, calculate D2E/DX2 analyt!
 ! R48   R(6,9)                  3.4827         frozen, calculate D2E/DX2 analyt!
 ! R49   R(6,11)                 4.0514         frozen, calculate D2E/DX2 analyt!
 ! R50   R(6,12)                 2.9457         frozen, calculate D2E/DX2 analyt!
 ! R51   R(6,13)                 1.1102         frozen, calculate D2E/DX2 analyt!
 ! R52   R(6,14)                 1.1101         frozen, calculate D2E/DX2 analyt!
 ! R53   R(6,15)                 1.1098         frozen, calculate D2E/DX2 analyt!
 ! R54   R(6,16)                 3.3329         frozen, calculate D2E/DX2 analyt!
 ! R55   R(6,17)                 2.682          frozen, calculate D2E/DX2 analyt!
 ! R56   R(6,18)                 3.3339         frozen, calculate D2E/DX2 analyt!
 ! R57   R(7,8)                  5.2446         frozen, calculate D2E/DX2 analyt!
 ! R58   R(7,9)                  2.6316         frozen, calculate D2E/DX2 analyt!
 ! R59   R(7,11)                 4.6004         frozen, calculate D2E/DX2 analyt!
 ! R60   R(7,12)                 4.2549         frozen, calculate D2E/DX2 analyt!
 ! R61   R(7,13)                 3.335          frozen, calculate D2E/DX2 analyt!
 ! R62   R(7,14)                 3.3313         frozen, calculate D2E/DX2 analyt!
 ! R63   R(7,15)                 2.68           frozen, calculate D2E/DX2 analyt!
 ! R64   R(7,16)                 1.1106         frozen, calculate D2E/DX2 analyt!
 ! R65   R(7,17)                 1.1098         frozen, calculate D2E/DX2 analyt!
 ! R66   R(7,18)                 1.1106         frozen, calculate D2E/DX2 analyt!
 ! R67   R(8,9)                  4.9307         frozen, calculate D2E/DX2 analyt!
 ! R68   R(8,11)                 4.6303         frozen, calculate D2E/DX2 analyt!
 ! R69   R(8,12)                 4.809          frozen, calculate D2E/DX2 analyt!
 ! R70   R(8,13)                 4.821          frozen, calculate D2E/DX2 analyt!
 ! R71   R(8,14)                 3.1167         frozen, calculate D2E/DX2 analyt!
 ! R72   R(8,15)                 4.671          frozen, calculate D2E/DX2 analyt!
 ! R73   R(8,16)                 6.2139         frozen, calculate D2E/DX2 analyt!
 ! R74   R(8,17)                 5.571          frozen, calculate D2E/DX2 analyt!
 ! R75   R(8,18)                 5.0077         frozen, calculate D2E/DX2 analyt!
 ! R76   R(9,11)                 2.3768         frozen, calculate D2E/DX2 analyt!
 ! R77   R(9,12)                 2.9491         frozen, calculate D2E/DX2 analyt!
 ! R78   R(9,13)                 3.8347         frozen, calculate D2E/DX2 analyt!
 ! R79   R(9,14)                 3.8386         frozen, calculate D2E/DX2 analyt!
 ! R80   R(9,15)                 4.2824         frozen, calculate D2E/DX2 analyt!
 ! R81   R(9,16)                 2.6718         frozen, calculate D2E/DX2 analyt!
 ! R82   R(9,17)                 3.7141         frozen, calculate D2E/DX2 analyt!
 ! R83   R(9,18)                 2.6715         frozen, calculate D2E/DX2 analyt!
 ! R84   R(11,12)                1.8024         frozen, calculate D2E/DX2 analyt!
 ! R85   R(11,13)                3.9998         frozen, calculate D2E/DX2 analyt!
 ! R86   R(11,14)                4.0084         frozen, calculate D2E/DX2 analyt!
 ! R87   R(11,15)                5.1347         frozen, calculate D2E/DX2 analyt!
 ! R88   R(11,16)                4.7822         frozen, calculate D2E/DX2 analyt!
 ! R89   R(11,17)                5.5251         frozen, calculate D2E/DX2 analyt!
 ! R90   R(11,18)                4.7817         frozen, calculate D2E/DX2 analyt!
 ! R91   R(12,13)                2.4971         frozen, calculate D2E/DX2 analyt!
 ! R92   R(12,14)                3.0944         frozen, calculate D2E/DX2 analyt!
 ! R93   R(12,15)                4.0146         frozen, calculate D2E/DX2 analyt!
 ! R94   R(12,16)                4.4602         frozen, calculate D2E/DX2 analyt!
 ! R95   R(12,17)                4.9376         frozen, calculate D2E/DX2 analyt!
 ! R96   R(12,18)                4.8139         frozen, calculate D2E/DX2 analyt!
 ! R97   R(13,14)                1.8123         frozen, calculate D2E/DX2 analyt!
 ! R98   R(13,15)                1.7954         frozen, calculate D2E/DX2 analyt!
 ! R99   R(13,16)                3.7865         frozen, calculate D2E/DX2 analyt!
 ! R100  R(13,17)                3.4481         frozen, calculate D2E/DX2 analyt!
 ! R101  R(13,18)                4.1969         frozen, calculate D2E/DX2 analyt!
 ! R102  R(14,15)                1.7953         frozen, calculate D2E/DX2 analyt!
 ! R103  R(14,16)                4.1944         frozen, calculate D2E/DX2 analyt!
 ! R104  R(14,17)                3.4413         frozen, calculate D2E/DX2 analyt!
 ! R105  R(14,18)                3.7831         frozen, calculate D2E/DX2 analyt!
 ! R106  R(15,16)                3.443          frozen, calculate D2E/DX2 analyt!
 ! R107  R(15,17)                2.2822         frozen, calculate D2E/DX2 analyt!
 ! R108  R(15,18)                3.4474         frozen, calculate D2E/DX2 analyt!
 ! R109  R(16,17)                1.7993         frozen, calculate D2E/DX2 analyt!
 ! R110  R(16,18)                1.8093         frozen, calculate D2E/DX2 analyt!
 ! R111  R(17,18)                1.7992         frozen, calculate D2E/DX2 analyt!
 ! A1    A(2,1,10)             158.403          calculate D2E/DX2 analytically  !
 ! A2    A(1,2,8)              104.5038         calculate D2E/DX2 analytically  !
 ! A3    A(4,3,5)              123.2672         calculate D2E/DX2 analytically  !
 ! A4    A(4,3,9)              119.2895         calculate D2E/DX2 analytically  !
 ! A5    A(5,3,9)              117.4432         calculate D2E/DX2 analytically  !
 ! A6    A(3,4,6)              121.4991         calculate D2E/DX2 analytically  !
 ! A7    A(3,4,7)              118.7197         calculate D2E/DX2 analytically  !
 ! A8    A(6,4,7)              119.7812         calculate D2E/DX2 analytically  !
 ! A9    A(3,5,10)             110.08           calculate D2E/DX2 analytically  !
 ! A10   A(3,5,11)             109.6242         calculate D2E/DX2 analytically  !
 ! A11   A(3,5,12)             110.2072         calculate D2E/DX2 analytically  !
 ! A12   A(10,5,11)            108.5408         calculate D2E/DX2 analytically  !
 ! A13   A(10,5,12)            109.8056         calculate D2E/DX2 analytically  !
 ! A14   A(11,5,12)            108.5461         calculate D2E/DX2 analytically  !
 ! A15   A(4,6,13)             109.9772         calculate D2E/DX2 analytically  !
 ! A16   A(4,6,14)             109.9757         calculate D2E/DX2 analytically  !
 ! A17   A(4,6,15)             111.526          calculate D2E/DX2 analytically  !
 ! A18   A(13,6,14)            109.4187         calculate D2E/DX2 analytically  !
 ! A19   A(13,6,15)            107.943          calculate D2E/DX2 analytically  !
 ! A20   A(14,6,15)            107.9393         calculate D2E/DX2 analytically  !
 ! A21   A(4,7,16)             109.7442         calculate D2E/DX2 analytically  !
 ! A22   A(4,7,17)             111.7131         calculate D2E/DX2 analytically  !
 ! A23   A(4,7,18)             109.7411         calculate D2E/DX2 analytically  !
 ! A24   A(16,7,17)            108.2587         calculate D2E/DX2 analytically  !
 ! A25   A(16,7,18)            109.0819         calculate D2E/DX2 analytically  !
 ! A26   A(17,7,18)            108.245          calculate D2E/DX2 analytically  !
 ! A27   A(1,10,5)             166.2525         calculate D2E/DX2 analytically  !
 ! D1    D(10,1,2,8)            89.2942         calculate D2E/DX2 analytically  !
 ! D2    D(2,1,10,5)            -2.7816         calculate D2E/DX2 analytically  !
 ! D3    D(5,3,4,6)             -0.1232         calculate D2E/DX2 analytically  !
 ! D4    D(5,3,4,7)            179.9656         calculate D2E/DX2 analytically  !
 ! D5    D(9,3,4,6)            179.9399         calculate D2E/DX2 analytically  !
 ! D6    D(9,3,4,7)              0.0287         calculate D2E/DX2 analytically  !
 ! D7    D(4,3,5,10)           -60.6329         calculate D2E/DX2 analytically  !
 ! D8    D(4,3,5,11)          -179.9589         calculate D2E/DX2 analytically  !
 ! D9    D(4,3,5,12)            60.6302         calculate D2E/DX2 analytically  !
 ! D10   D(9,3,5,10)           119.3051         calculate D2E/DX2 analytically  !
 ! D11   D(9,3,5,11)            -0.0209         calculate D2E/DX2 analytically  !
 ! D12   D(9,3,5,12)          -119.4318         calculate D2E/DX2 analytically  !
 ! D13   D(3,4,6,13)           -59.9007         calculate D2E/DX2 analytically  !
 ! D14   D(3,4,6,14)            60.6655         calculate D2E/DX2 analytically  !
 ! D15   D(3,4,6,15)          -179.6204         calculate D2E/DX2 analytically  !
 ! D16   D(7,4,6,13)           120.0096         calculate D2E/DX2 analytically  !
 ! D17   D(7,4,6,14)          -119.4242         calculate D2E/DX2 analytically  !
 ! D18   D(7,4,6,15)             0.2899         calculate D2E/DX2 analytically  !
 ! D19   D(3,4,7,16)            59.926          calculate D2E/DX2 analytically  !
 ! D20   D(3,4,7,17)          -179.9926         calculate D2E/DX2 analytically  !
 ! D21   D(3,4,7,18)           -59.9306         calculate D2E/DX2 analytically  !
 ! D22   D(6,4,7,16)          -119.9868         calculate D2E/DX2 analytically  !
 ! D23   D(6,4,7,17)             0.0946         calculate D2E/DX2 analytically  !
 ! D24   D(6,4,7,18)           120.1566         calculate D2E/DX2 analytically  !
 ! D25   D(3,5,10,1)           -51.5004         calculate D2E/DX2 analytically  !
 ! D26   D(11,5,10,1)           68.4839         calculate D2E/DX2 analytically  !
 ! D27   D(12,5,10,1)         -173.0033         calculate D2E/DX2 analytically  !
 --------------------------------------------------------------------------------
 Trust Radius=3.00D-01 FncErr=1.00D-07 GrdErr=1.00D-06
 Number of steps in this run=    108 maximum allowed number of steps=    108.
 Search for a saddle point of order  1.
 GradGradGradGradGradGradGradGradGradGradGradGradGradGradGradGradGradGrad

 Leave Link  103 at Tue Jun 12 20:32:52 2018, MaxMem=  671088640 cpu:       0.2
 (Enter /shared/apps/gaussian/G09_LINUX_LINDA/g09/l202.exe)
                          Input orientation:                          
 ---------------------------------------------------------------------
 Center     Atomic      Atomic             Coordinates (Angstroms)
 Number     Number       Type             X           Y           Z
 ---------------------------------------------------------------------
      1          8           0       -2.694300   -0.004900    0.133500
      2          8           0       -3.476100   -1.057800    0.024300
      3          6           0        0.337300    0.556200   -0.985100
      4          6           0        0.988000   -0.111800   -0.010200
      5          6           0       -0.821900    1.473700   -0.722500
      6          6           0        0.588800    0.022400    1.440200
      7          6           0        2.138600   -1.007300   -0.389900
      8          1           0       -2.975800   -1.785700    0.472100
      9          1           0        0.655600    0.433800   -2.017500
     10          1           0       -1.804700    0.809000   -0.165000
     11          1           0       -1.183800    1.901000   -1.681100
     12          1           0       -0.508500    2.307600   -0.060200
     13          1           0        0.679200    1.081100    1.762100
     14          1           0       -0.459100   -0.317100    1.578100
     15          1           0        1.236700   -0.591900    2.099400
     16          1           0        2.928000   -0.410500   -0.894100
     17          1           0        2.587700   -1.497800    0.498600
     18          1           0        1.784400   -1.799800   -1.082700
 ---------------------------------------------------------------------
                    Distance matrix (angstroms):
                    1          2          3          4          5
     1  O    0.000000
     2  O    1.315954   0.000000
     3  C    3.279740   4.262148   0.000000
     4  C    3.686653   4.563364   1.349098   0.000000
     5  C    2.534734   3.743124   1.501502   2.509366   0.000000
     6  C    3.533689   4.437907   2.496052   1.510308   2.962029
     7  C    4.963434   5.630184   2.458348   1.506643   3.876925
     8  H    1.834432   0.990284   4.310981   4.329696   4.085345
     9  H    4.005133   4.844044   1.087266   2.106519   2.222931
    10  H    1.242145   2.512838   2.307517   2.944658   1.310926
    11  H    3.034277   4.113092   2.146310   3.399998   1.110167
    12  H    3.187930   4.487729   2.153653   2.845261   1.110068
    13  H    3.900287   4.986117   2.817716   2.158568   2.929279
    14  H    2.679637   3.473503   2.822570   2.158459   2.937916
    15  H    4.434196   5.170453   3.411919   2.177788   4.058036
    16  H    5.729811   6.501919   2.766680   2.152696   4.200167
    17  H    5.501052   6.098215   3.388891   2.176905   4.684685
    18  H    4.975898   5.426682   2.766651   2.152639   4.199803
                    6          7          8          9         10
     6  C    0.000000
     7  C    2.609871   0.000000
     8  H    4.112519   5.244620   0.000000
     9  H    3.482729   2.631566   4.930655   0.000000
    10  H    2.987348   4.347314   2.917163   3.102516   0.000000
    11  H    4.051390   4.600407   4.630258   2.376812   1.968893
    12  H    2.945744   4.254927   4.808952   2.949115   1.984167
    13  H    1.110242   3.335021   4.820961   3.834701   3.155553
    14  H    1.110122   3.331283   3.116697   3.838586   2.473285
    15  H    1.109812   2.680036   4.671019   4.282360   4.042294
    16  H    3.332899   1.110649   6.213898   2.671829   4.941378
    17  H    2.682018   1.109826   5.571007   3.714142   5.005484
    18  H    3.333901   1.110624   5.007705   2.671518   4.530966
                   11         12         13         14         15
    11  H    0.000000
    12  H    1.802407   0.000000
    13  H    3.999829   2.497141   0.000000
    14  H    4.008434   3.094433   1.812332   0.000000
    15  H    5.134740   4.014560   1.795413   1.795273   0.000000
    16  H    4.782186   4.460156   3.786472   4.194394   3.443028
    17  H    5.525138   4.937589   3.448120   3.441273   2.282196
    18  H    4.781654   4.813900   4.196896   3.783061   3.447428
                   16         17         18
    16  H    0.000000
    17  H    1.799344   0.000000
    18  H    1.809294   1.799168   0.000000
 Stoichiometry    C5H11O2(2)
 Framework group  C1[X(C5H11O2)]
 Deg. of freedom    48
 Full point group                 C1      NOp   1
 Largest Abelian subgroup         C1      NOp   1
 Largest concise Abelian subgroup C1      NOp   1
                         Standard orientation:                         
 ---------------------------------------------------------------------
 Center     Atomic      Atomic             Coordinates (Angstroms)
 Number     Number       Type             X           Y           Z
 ---------------------------------------------------------------------
      1          8           0       -2.222663   -0.019976    0.138637
      2          8           0       -3.010527   -0.812419   -0.556373
      3          6           0        0.836390    1.018075   -0.428233
      4          6           0        1.460860   -0.095773    0.007018
      5          6           0       -0.320594    1.648414    0.291885
      6          6           0        1.032175   -0.796685    1.274291
      7          6           0        2.611903   -0.641670   -0.797388
      8          1           0       -2.525757   -1.675210   -0.591757
      9          1           0        1.175451    1.494175   -1.345028
     10          1           0       -1.320348    0.803506    0.363647
     11          1           0       -0.658643    2.549073   -0.262198
     12          1           0       -0.014493    1.956560    1.313451
     13          1           0        1.124364   -0.106666    2.139169
     14          1           0       -0.021138   -1.135105    1.182778
     15          1           0        1.660961   -1.687889    1.479392
     16          1           0        3.416627    0.120727   -0.866026
     17          1           0        3.038098   -1.556513   -0.335725
     18          1           0        2.265995   -0.897672   -1.821251
 ---------------------------------------------------------------------
 Rotational constants (GHZ):      3.5133442      1.1336463      1.0410132
 Leave Link  202 at Tue Jun 12 20:32:52 2018, MaxMem=  671088640 cpu:       0.7
 (Enter /shared/apps/gaussian/G09_LINUX_LINDA/g09/l301.exe)
 Standard basis: 6-311+G(2df,2p) (5D, 7F)
 Ernie: Thresh=  0.10000D-02 Tol=  0.10000D-05 Strict=F.
 There are   337 symmetry adapted basis functions of A   symmetry.
 Integral buffers will be    131072 words long.
 Raffenetti 2 integral format.
 Two-electron integral symmetry is turned on.
   337 basis functions,   485 primitive gaussians,   372 cartesian basis functions
    29 alpha electrons       28 beta electrons
       nuclear repulsion energy       299.2568299134 Hartrees.
 IExCor= 4336 DFT=T Ex+Corr=M062X ExCW=0 ScaHFX=  0.540000
 ScaDFX=  1.000000  1.000000  1.000000  1.000000 ScalE2=  1.000000  1.000000
 IRadAn=      0 IRanWt=     -1 IRanGd=            0 ICorTp=0
 NAtoms=   18 NActive=   18 NUniq=   18 SFac= 1.00D+00 NAtFMM=   50 NAOKFM=F Big=F
 Leave Link  301 at Tue Jun 12 20:32:52 2018, MaxMem=  671088640 cpu:       1.0
 (Enter /shared/apps/gaussian/G09_LINUX_LINDA/g09/l302.exe)
 NPDir=0 NMtPBC=     1 NCelOv=     1 NCel=       1 NClECP=     1 NCelD=      1
         NCelK=      1 NCelE2=     1 NClLst=     1 CellRange=     0.0.
 One-electron integrals computed using PRISM.
 NBasis=   337 RedAO= T  NBF=   337
 NBsUse=   337 1.00D-06 NBFU=   337
 Precomputing XC quadrature grid using
 IXCGrd= 2 IRadAn=           0 IRanWt=          -1 IRanGd=           0 AccXCQ= 0.00D+00.
 NRdTot=    1163 NPtTot=      147192 NUsed=      155580 NTot=      155612
 NSgBfM=   372   372   372   372   372 NAtAll=    18    18.
 Leave Link  302 at Tue Jun 12 20:32:54 2018, MaxMem=  671088640 cpu:      17.4
 (Enter /shared/apps/gaussian/G09_LINUX_LINDA/g09/l303.exe)
 DipDrv:  MaxL=1.
 Leave Link  303 at Tue Jun 12 20:32:55 2018, MaxMem=  671088640 cpu:       3.1
 (Enter /shared/apps/gaussian/G09_LINUX_LINDA/g09/l401.exe)
 Harris functional with IExCor= 1009 diagonalized for initial guess.
 ExpMin= 4.38D-02 ExpMax= 8.59D+03 ExpMxC= 1.30D+03 IAcc=2 IRadAn=         0 AccDes= 0.00D+00
 HarFok:  IExCor= 1009 AccDes= 0.00D+00 IRadAn=         0 IDoV= 1
 ScaDFX=  1.000000  1.000000  1.000000  1.000000
 FoFCou: FMM=F IPFlag=           0 FMFlag=      100000 FMFlg1=           0
         NFxFlg=           0 DoJE=T BraDBF=F KetDBF=T FulRan=T
         Omega=  0.000000  0.000000  1.000000  0.000000  0.000000 ICntrl=     500 IOpCl=  0
         NMat0=    1 NMatS0=    1 NMatT0=    0 NMatD0=    1 NMtDS0=    0 NMtDT0=    0
         I1Cent=           4 NGrid=           0.
 Petite list used in FoFCou.
 Harris En= -347.230857044200    
 Initial guess orbital symmetries:
 Alpha Orbitals:
       Occupied  (A) (A) (A) (A) (A) (A) (A) (A) (A) (A) (A) (A)
                 (A) (A) (A) (A) (A) (A) (A) (A) (A) (A) (A) (A)
                 (A) (A) (A) (A) (A)
       Virtual   (A) (A) (A) (A) (A) (A) (A) (A) (A) (A) (A) (A)
                 (A) (A) (A) (A) (A) (A) (A) (A) (A) (A) (A) (A)
                 (A) (A) (A) (A) (A) (A) (A) (A) (A) (A) (A) (A)
                 (A) (A) (A) (A) (A) (A) (A) (A) (A) (A) (A) (A)
                 (A) (A) (A) (A) (A) (A) (A) (A) (A) (A) (A) (A)
                 (A) (A) (A) (A) (A) (A) (A) (A) (A) (A) (A) (A)
                 (A) (A) (A) (A) (A) (A) (A) (A) (A) (A) (A) (A)
                 (A) (A) (A) (A) (A) (A) (A) (A) (A) (A) (A) (A)
                 (A) (A) (A) (A) (A) (A) (A) (A) (A) (A) (A) (A)
                 (A) (A) (A) (A) (A) (A) (A) (A) (A) (A) (A) (A)
                 (A) (A) (A) (A) (A) (A) (A) (A) (A) (A) (A) (A)
                 (A) (A) (A) (A) (A) (A) (A) (A) (A) (A) (A) (A)
                 (A) (A) (A) (A) (A) (A) (A) (A) (A) (A) (A) (A)
                 (A) (A) (A) (A) (A) (A) (A) (A) (A) (A) (A) (A)
                 (A) (A) (A) (A) (A) (A) (A) (A) (A) (A) (A) (A)
                 (A) (A) (A) (A) (A) (A) (A) (A) (A) (A) (A) (A)
                 (A) (A) (A) (A) (A) (A) (A) (A) (A) (A) (A) (A)
                 (A) (A) (A) (A) (A) (A) (A) (A) (A) (A) (A) (A)
                 (A) (A) (A) (A) (A) (A) (A) (A) (A) (A) (A) (A)
                 (A) (A) (A) (A) (A) (A) (A) (A) (A) (A) (A) (A)
                 (A) (A) (A) (A) (A) (A) (A) (A) (A) (A) (A) (A)
                 (A) (A) (A) (A) (A) (A) (A) (A) (A) (A) (A) (A)
                 (A) (A) (A) (A) (A) (A) (A) (A) (A) (A) (A) (A)
                 (A) (A) (A) (A) (A) (A) (A) (A) (A) (A) (A) (A)
                 (A) (A) (A) (A) (A) (A) (A) (A) (A) (A) (A) (A)
                 (A) (A) (A) (A) (A) (A) (A) (A)
 Beta  Orbitals:
       Occupied  (A) (A) (A) (A) (A) (A) (A) (A) (A) (A) (A) (A)
                 (A) (A) (A) (A) (A) (A) (A) (A) (A) (A) (A) (A)
                 (A) (A) (A) (A)
       Virtual   (A) (A) (A) (A) (A) (A) (A) (A) (A) (A) (A) (A)
                 (A) (A) (A) (A) (A) (A) (A) (A) (A) (A) (A) (A)
                 (A) (A) (A) (A) (A) (A) (A) (A) (A) (A) (A) (A)
                 (A) (A) (A) (A) (A) (A) (A) (A) (A) (A) (A) (A)
                 (A) (A) (A) (A) (A) (A) (A) (A) (A) (A) (A) (A)
                 (A) (A) (A) (A) (A) (A) (A) (A) (A) (A) (A) (A)
                 (A) (A) (A) (A) (A) (A) (A) (A) (A) (A) (A) (A)
                 (A) (A) (A) (A) (A) (A) (A) (A) (A) (A) (A) (A)
                 (A) (A) (A) (A) (A) (A) (A) (A) (A) (A) (A) (A)
                 (A) (A) (A) (A) (A) (A) (A) (A) (A) (A) (A) (A)
                 (A) (A) (A) (A) (A) (A) (A) (A) (A) (A) (A) (A)
                 (A) (A) (A) (A) (A) (A) (A) (A) (A) (A) (A) (A)
                 (A) (A) (A) (A) (A) (A) (A) (A) (A) (A) (A) (A)
                 (A) (A) (A) (A) (A) (A) (A) (A) (A) (A) (A) (A)
                 (A) (A) (A) (A) (A) (A) (A) (A) (A) (A) (A) (A)
                 (A) (A) (A) (A) (A) (A) (A) (A) (A) (A) (A) (A)
                 (A) (A) (A) (A) (A) (A) (A) (A) (A) (A) (A) (A)
                 (A) (A) (A) (A) (A) (A) (A) (A) (A) (A) (A) (A)
                 (A) (A) (A) (A) (A) (A) (A) (A) (A) (A) (A) (A)
                 (A) (A) (A) (A) (A) (A) (A) (A) (A) (A) (A) (A)
                 (A) (A) (A) (A) (A) (A) (A) (A) (A) (A) (A) (A)
                 (A) (A) (A) (A) (A) (A) (A) (A) (A) (A) (A) (A)
                 (A) (A) (A) (A) (A) (A) (A) (A) (A) (A) (A) (A)
                 (A) (A) (A) (A) (A) (A) (A) (A) (A) (A) (A) (A)
                 (A) (A) (A) (A) (A) (A) (A) (A) (A) (A) (A) (A)
                 (A) (A) (A) (A) (A) (A) (A) (A) (A)
 The electronic state of the initial guess is 2-A.
 Initial guess <Sx>= 0.0000 <Sy>= 0.0000 <Sz>= 0.5000 <S**2>= 0.7500 S= 0.5000
 Leave Link  401 at Tue Jun 12 20:33:01 2018, MaxMem=  671088640 cpu:      61.6
 (Enter /shared/apps/gaussian/G09_LINUX_LINDA/g09/l502.exe)
 UHF open shell SCF:
 Requested convergence on RMS density matrix=1.00D-08 within 128 cycles.
 Requested convergence on MAX density matrix=1.00D-06.
 Requested convergence on             energy=1.00D-06.
 No special actions if energy rises.
 Using DIIS extrapolation, IDIIS=  1040.
 Integral symmetry usage will be decided dynamically.
       155405 words used for storage of precomputed grid.
 IEnd=      598859 IEndB=      598859 NGot=   671088640 MDV=   670645178
 LenX=   670645178 LenY=   670506353
 Fock matrices will be formed incrementally for  20 cycles.

 Cycle   1  Pass 1  IDiag  1:
 FoFCou: FMM=F IPFlag=           0 FMFlag=      100000 FMFlg1=           0
         NFxFlg=           0 DoJE=F BraDBF=F KetDBF=F FulRan=T
         Omega=  0.000000  0.000000  1.000000  0.000000  0.000000 ICntrl=       0 IOpCl=  1
         NMat0=    1 NMatS0=    1 NMatT0=    0 NMatD0=    1 NMtDS0=    0 NMtDT0=    0
         I1Cent=           0 NGrid=           0.
 Symmetry not used in FoFCou.
 E= -347.060703794788    
 DIIS: error= 2.30D-02 at cycle   1 NSaved=   1.
 NSaved= 1 IEnMin= 1 EnMin= -347.060703794788     IErMin= 1 ErrMin= 2.30D-02
 ErrMax= 2.30D-02 EMaxC= 1.00D-01 BMatC= 1.16D+00 BMatP= 1.16D+00
 IDIUse=3 WtCom= 7.70D-01 WtEn= 2.30D-01
 Coeff-Com:  0.100D+01
 Coeff-En:   0.100D+01
 Coeff:      0.100D+01
 Gap=     0.585 Goal=   None    Shift=    0.000
 Gap=     0.275 Goal=   None    Shift=    0.000
 GapD=    0.275 DampG=1.000 DampE=0.500 DampFc=0.5000 IDamp=-1.
 Damping current iteration by 5.00D-01
 RMSDP=5.30D-03 MaxDP=3.12D-01              OVMax= 4.58D-01

 Cycle   2  Pass 1  IDiag  1:
 RMSU=  1.85D-03    CP:  9.09D-01
 E= -347.174425425352     Delta-E=       -0.113721630564 Rises=F Damp=T
 DIIS: error= 9.73D-03 at cycle   2 NSaved=   2.
 NSaved= 2 IEnMin= 2 EnMin= -347.174425425352     IErMin= 2 ErrMin= 9.73D-03
 ErrMax= 9.73D-03 EMaxC= 1.00D-01 BMatC= 1.13D-01 BMatP= 1.16D+00
 IDIUse=3 WtCom= 9.03D-01 WtEn= 9.73D-02
 Coeff-Com: -0.194D-01 0.102D+01
 Coeff-En:   0.773D-01 0.923D+00
 Coeff:     -0.100D-01 0.101D+01
 Gap=     0.315 Goal=   None    Shift=    0.000
 Gap=     0.141 Goal=   None    Shift=    0.000
 RMSDP=1.95D-03 MaxDP=1.10D-01 DE=-1.14D-01 OVMax= 4.48D-01

 Cycle   3  Pass 1  IDiag  1:
 RMSU=  1.17D-03    CP:  9.01D-01  6.55D-01
 E= -347.303998657993     Delta-E=       -0.129573232641 Rises=F Damp=F
 DIIS: error= 7.04D-03 at cycle   3 NSaved=   3.
 NSaved= 3 IEnMin= 3 EnMin= -347.303998657993     IErMin= 3 ErrMin= 7.04D-03
 ErrMax= 7.04D-03 EMaxC= 1.00D-01 BMatC= 9.93D-02 BMatP= 1.13D-01
 IDIUse=3 WtCom= 9.30D-01 WtEn= 7.04D-02
 Coeff-Com: -0.838D-01 0.533D+00 0.550D+00
 Coeff-En:   0.000D+00 0.000D+00 0.100D+01
 Coeff:     -0.779D-01 0.496D+00 0.582D+00
 Gap=     0.288 Goal=   None    Shift=    0.000
 Gap=     0.141 Goal=   None    Shift=    0.000
 RMSDP=6.66D-04 MaxDP=2.98D-02 DE=-1.30D-01 OVMax= 7.92D-02

 Cycle   4  Pass 1  IDiag  1:
 RMSU=  3.56D-04    CP:  8.91D-01  7.68D-01  8.37D-01
 E= -347.324382329871     Delta-E=       -0.020383671878 Rises=F Damp=F
 DIIS: error= 1.80D-03 at cycle   4 NSaved=   4.
 NSaved= 4 IEnMin= 4 EnMin= -347.324382329871     IErMin= 4 ErrMin= 1.80D-03
 ErrMax= 1.80D-03 EMaxC= 1.00D-01 BMatC= 6.21D-03 BMatP= 9.93D-02
 IDIUse=3 WtCom= 9.82D-01 WtEn= 1.80D-02
 Coeff-Com: -0.366D-01 0.821D-01 0.213D+00 0.741D+00
 Coeff-En:   0.000D+00 0.000D+00 0.000D+00 0.100D+01
 Coeff:     -0.359D-01 0.807D-01 0.209D+00 0.746D+00
 Gap=     0.272 Goal=   None    Shift=    0.000
 Gap=     0.155 Goal=   None    Shift=    0.000
 RMSDP=1.91D-04 MaxDP=1.37D-02 DE=-2.04D-02 OVMax= 3.00D-02

 Cycle   5  Pass 1  IDiag  1:
 RMSU=  1.10D-04    CP:  8.87D-01  7.69D-01  8.56D-01  1.09D+00
 E= -347.325926901947     Delta-E=       -0.001544572076 Rises=F Damp=F
 DIIS: error= 1.00D-03 at cycle   5 NSaved=   5.
 NSaved= 5 IEnMin= 5 EnMin= -347.325926901947     IErMin= 5 ErrMin= 1.00D-03
 ErrMax= 1.00D-03 EMaxC= 1.00D-01 BMatC= 5.45D-04 BMatP= 6.21D-03
 IDIUse=3 WtCom= 9.90D-01 WtEn= 1.00D-02
 Coeff-Com: -0.795D-02 0.835D-02 0.267D-01 0.215D+00 0.757D+00
 Coeff-En:   0.000D+00 0.000D+00 0.000D+00 0.000D+00 0.100D+01
 Coeff:     -0.787D-02 0.826D-02 0.265D-01 0.213D+00 0.760D+00
 Gap=     0.273 Goal=   None    Shift=    0.000
 Gap=     0.161 Goal=   None    Shift=    0.000
 RMSDP=7.28D-05 MaxDP=3.94D-03 DE=-1.54D-03 OVMax= 1.55D-02

 Cycle   6  Pass 1  IDiag  1:
 RMSU=  3.29D-05    CP:  8.89D-01  7.61D-01  8.60D-01  1.13D+00  1.15D+00
 E= -347.326174192284     Delta-E=       -0.000247290337 Rises=F Damp=F
 DIIS: error= 6.91D-04 at cycle   6 NSaved=   6.
 NSaved= 6 IEnMin= 6 EnMin= -347.326174192284     IErMin= 6 ErrMin= 6.91D-04
 ErrMax= 6.91D-04 EMaxC= 1.00D-01 BMatC= 4.43D-04 BMatP= 5.45D-04
 IDIUse=3 WtCom= 9.93D-01 WtEn= 6.91D-03
 Coeff-Com:  0.852D-02-0.257D-01-0.633D-01-0.124D+00 0.511D+00 0.694D+00
 Coeff-En:   0.000D+00 0.000D+00 0.000D+00 0.000D+00 0.000D+00 0.100D+01
 Coeff:      0.847D-02-0.256D-01-0.628D-01-0.123D+00 0.507D+00 0.696D+00
 Gap=     0.272 Goal=   None    Shift=    0.000
 Gap=     0.163 Goal=   None    Shift=    0.000
 RMSDP=6.83D-05 MaxDP=4.18D-03 DE=-2.47D-04 OVMax= 1.12D-02

 Cycle   7  Pass 1  IDiag  1:
 RMSU=  2.78D-05    CP:  8.89D-01  7.57D-01  8.57D-01  1.19D+00  1.40D+00
                    CP:  1.29D+00
 E= -347.326338062550     Delta-E=       -0.000163870266 Rises=F Damp=F
 DIIS: error= 2.89D-04 at cycle   7 NSaved=   7.
 NSaved= 7 IEnMin= 7 EnMin= -347.326338062550     IErMin= 7 ErrMin= 2.89D-04
 ErrMax= 2.89D-04 EMaxC= 1.00D-01 BMatC= 2.64D-05 BMatP= 4.43D-04
 IDIUse=3 WtCom= 9.97D-01 WtEn= 2.89D-03
 Coeff-Com:  0.362D-02-0.574D-02-0.234D-01-0.879D-01-0.132D-01 0.974D-01
 Coeff-Com:  0.103D+01
 Coeff-En:   0.000D+00 0.000D+00 0.000D+00 0.000D+00 0.000D+00 0.000D+00
 Coeff-En:   0.100D+01
 Coeff:      0.361D-02-0.572D-02-0.233D-01-0.877D-01-0.132D-01 0.972D-01
 Coeff:      0.103D+01
 Gap=     0.272 Goal=   None    Shift=    0.000
 Gap=     0.164 Goal=   None    Shift=    0.000
 RMSDP=3.51D-05 MaxDP=1.37D-03 DE=-1.64D-04 OVMax= 9.36D-03

 Cycle   8  Pass 1  IDiag  1:
 RMSU=  1.01D-05    CP:  8.89D-01  7.56D-01  8.54D-01  1.20D+00  1.50D+00
                    CP:  1.50D+00  1.45D+00
 E= -347.326375231349     Delta-E=       -0.000037168799 Rises=F Damp=F
 DIIS: error= 1.07D-04 at cycle   8 NSaved=   8.
 NSaved= 8 IEnMin= 8 EnMin= -347.326375231349     IErMin= 8 ErrMin= 1.07D-04
 ErrMax= 1.07D-04 EMaxC= 1.00D-01 BMatC= 1.13D-05 BMatP= 2.64D-05
 IDIUse=3 WtCom= 9.99D-01 WtEn= 1.07D-03
 Coeff-Com: -0.337D-03 0.244D-02 0.832D-03-0.677D-02-0.612D-01-0.117D+00
 Coeff-Com:  0.357D+00 0.825D+00
 Coeff-En:   0.000D+00 0.000D+00 0.000D+00 0.000D+00 0.000D+00 0.000D+00
 Coeff-En:   0.000D+00 0.100D+01
 Coeff:     -0.336D-03 0.243D-02 0.832D-03-0.676D-02-0.612D-01-0.117D+00
 Coeff:      0.357D+00 0.825D+00
 Gap=     0.272 Goal=   None    Shift=    0.000
 Gap=     0.164 Goal=   None    Shift=    0.000
 RMSDP=1.40D-05 MaxDP=6.61D-04 DE=-3.72D-05 OVMax= 3.10D-03

 Cycle   9  Pass 1  IDiag  1:
 RMSU=  5.32D-06    CP:  8.89D-01  7.57D-01  8.52D-01  1.20D+00  1.51D+00
                    CP:  1.58D+00  1.65D+00  1.35D+00
 E= -347.326382134043     Delta-E=       -0.000006902694 Rises=F Damp=F
 DIIS: error= 3.64D-05 at cycle   9 NSaved=   9.
 NSaved= 9 IEnMin= 9 EnMin= -347.326382134043     IErMin= 9 ErrMin= 3.64D-05
 ErrMax= 3.64D-05 EMaxC= 1.00D-01 BMatC= 2.56D-06 BMatP= 1.13D-05
 IDIUse=1 WtCom= 1.00D+00 WtEn= 0.00D+00
 Coeff-Com: -0.106D-02 0.223D-02 0.498D-02 0.204D-01-0.102D-01-0.932D-01
 Coeff-Com: -0.116D+00 0.248D+00 0.946D+00
 Coeff:     -0.106D-02 0.223D-02 0.498D-02 0.204D-01-0.102D-01-0.932D-01
 Coeff:     -0.116D+00 0.248D+00 0.946D+00
 Gap=     0.271 Goal=   None    Shift=    0.000
 Gap=     0.164 Goal=   None    Shift=    0.000
 RMSDP=9.53D-06 MaxDP=4.84D-04 DE=-6.90D-06 OVMax= 1.85D-03

 Cycle  10  Pass 1  IDiag  1:
 RMSU=  2.21D-06    CP:  8.89D-01  7.58D-01  8.51D-01  1.21D+00  1.53D+00
                    CP:  1.61D+00  1.77D+00  1.65D+00  1.39D+00
 E= -347.326384524714     Delta-E=       -0.000002390672 Rises=F Damp=F
 DIIS: error= 2.49D-05 at cycle  10 NSaved=  10.
 NSaved=10 IEnMin=10 EnMin= -347.326384524714     IErMin=10 ErrMin= 2.49D-05
 ErrMax= 2.49D-05 EMaxC= 1.00D-01 BMatC= 6.24D-07 BMatP= 2.56D-06
 IDIUse=1 WtCom= 1.00D+00 WtEn= 0.00D+00
 Coeff-Com: -0.185D-03 0.243D-03 0.258D-03 0.440D-02 0.951D-02-0.101D-01
 Coeff-Com: -0.557D-01-0.972D-01 0.226D+00 0.923D+00
 Coeff:     -0.185D-03 0.243D-03 0.258D-03 0.440D-02 0.951D-02-0.101D-01
 Coeff:     -0.557D-01-0.972D-01 0.226D+00 0.923D+00
 Gap=     0.271 Goal=   None    Shift=    0.000
 Gap=     0.164 Goal=   None    Shift=    0.000
 RMSDP=4.11D-06 MaxDP=3.86D-04 DE=-2.39D-06 OVMax= 6.55D-04

 Cycle  11  Pass 1  IDiag  1:
 RMSU=  1.20D-06    CP:  8.89D-01  7.58D-01  8.51D-01  1.21D+00  1.53D+00
                    CP:  1.62D+00  1.79D+00  1.73D+00  1.68D+00  1.36D+00
 E= -347.326385147712     Delta-E=       -0.000000622997 Rises=F Damp=F
 DIIS: error= 1.70D-05 at cycle  11 NSaved=  11.
 NSaved=11 IEnMin=11 EnMin= -347.326385147712     IErMin=11 ErrMin= 1.70D-05
 ErrMax= 1.70D-05 EMaxC= 1.00D-01 BMatC= 3.07D-07 BMatP= 6.24D-07
 IDIUse=1 WtCom= 1.00D+00 WtEn= 0.00D+00
 Coeff-Com:  0.314D-03-0.703D-03-0.218D-02-0.611D-02 0.113D-01 0.322D-01
 Coeff-Com:  0.262D-01-0.172D+00-0.257D+00 0.532D+00 0.836D+00
 Coeff:      0.314D-03-0.703D-03-0.218D-02-0.611D-02 0.113D-01 0.322D-01
 Coeff:      0.262D-01-0.172D+00-0.257D+00 0.532D+00 0.836D+00
 Gap=     0.271 Goal=   None    Shift=    0.000
 Gap=     0.164 Goal=   None    Shift=    0.000
 RMSDP=2.76D-06 MaxDP=1.98D-04 DE=-6.23D-07 OVMax= 5.73D-04

 Cycle  12  Pass 1  IDiag  1:
 RMSU=  8.03D-07    CP:  8.89D-01  7.58D-01  8.50D-01  1.21D+00  1.53D+00
                    CP:  1.62D+00  1.80D+00  1.77D+00  1.85D+00  1.80D+00
                    CP:  1.40D+00
 E= -347.326385528765     Delta-E=       -0.000000381053 Rises=F Damp=F
 DIIS: error= 9.38D-06 at cycle  12 NSaved=  12.
 NSaved=12 IEnMin=12 EnMin= -347.326385528765     IErMin=12 ErrMin= 9.38D-06
 ErrMax= 9.38D-06 EMaxC= 1.00D-01 BMatC= 7.04D-08 BMatP= 3.07D-07
 IDIUse=1 WtCom= 1.00D+00 WtEn= 0.00D+00
 Coeff-Com:  0.275D-04-0.378D-04-0.259D-03-0.112D-02-0.262D-02 0.377D-02
 Coeff-Com:  0.165D-01 0.258D-01-0.517D-01-0.316D+00-0.234D-01 0.135D+01
 Coeff:      0.275D-04-0.378D-04-0.259D-03-0.112D-02-0.262D-02 0.377D-02
 Coeff:      0.165D-01 0.258D-01-0.517D-01-0.316D+00-0.234D-01 0.135D+01
 Gap=     0.271 Goal=   None    Shift=    0.000
 Gap=     0.164 Goal=   None    Shift=    0.000
 RMSDP=2.22D-06 MaxDP=9.26D-05 DE=-3.81D-07 OVMax= 6.25D-04

 Cycle  13  Pass 1  IDiag  1:
 RMSU=  4.46D-07    CP:  8.89D-01  7.59D-01  8.50D-01  1.21D+00  1.53D+00
                    CP:  1.62D+00  1.80D+00  1.79D+00  1.94D+00  2.10D+00
                    CP:  2.00D+00  1.87D+00
 E= -347.326385741063     Delta-E=       -0.000000212298 Rises=F Damp=F
 DIIS: error= 6.14D-06 at cycle  13 NSaved=  13.
 NSaved=13 IEnMin=13 EnMin= -347.326385741063     IErMin=13 ErrMin= 6.14D-06
 ErrMax= 6.14D-06 EMaxC= 1.00D-01 BMatC= 2.73D-08 BMatP= 7.04D-08
 IDIUse=1 WtCom= 1.00D+00 WtEn= 0.00D+00
 Coeff-Com: -0.931D-04 0.209D-03 0.482D-03 0.165D-02-0.325D-02-0.860D-02
 Coeff-Com: -0.729D-02 0.486D-01 0.736D-01-0.155D+00-0.257D+00-0.179D-02
 Coeff-Com:  0.131D+01
 Coeff:     -0.931D-04 0.209D-03 0.482D-03 0.165D-02-0.325D-02-0.860D-02
 Coeff:     -0.729D-02 0.486D-01 0.736D-01-0.155D+00-0.257D+00-0.179D-02
 Coeff:      0.131D+01
 Gap=     0.271 Goal=   None    Shift=    0.000
 Gap=     0.164 Goal=   None    Shift=    0.000
 RMSDP=1.53D-06 MaxDP=6.98D-05 DE=-2.12D-07 OVMax= 5.01D-04

 Cycle  14  Pass 1  IDiag  1:
 RMSU=  2.92D-07    CP:  8.89D-01  7.59D-01  8.50D-01  1.21D+00  1.53D+00
                    CP:  1.62D+00  1.81D+00  1.81D+00  1.99D+00  2.28D+00
                    CP:  2.31D+00  2.56D+00  1.74D+00
 E= -347.326385839929     Delta-E=       -0.000000098866 Rises=F Damp=F
 DIIS: error= 3.82D-06 at cycle  14 NSaved=  14.
 NSaved=14 IEnMin=14 EnMin= -347.326385839929     IErMin=14 ErrMin= 3.82D-06
 ErrMax= 3.82D-06 EMaxC= 1.00D-01 BMatC= 1.22D-08 BMatP= 2.73D-08
 IDIUse=1 WtCom= 1.00D+00 WtEn= 0.00D+00
 Coeff-Com: -0.204D-04 0.448D-04 0.154D-03 0.644D-03 0.346D-03-0.275D-02
 Coeff-Com: -0.847D-02-0.340D-03 0.297D-01 0.117D+00-0.344D-01-0.630D+00
 Coeff-Com:  0.210D+00 0.132D+01
 Coeff:     -0.204D-04 0.448D-04 0.154D-03 0.644D-03 0.346D-03-0.275D-02
 Coeff:     -0.847D-02-0.340D-03 0.297D-01 0.117D+00-0.344D-01-0.630D+00
 Coeff:      0.210D+00 0.132D+01
 Gap=     0.271 Goal=   None    Shift=    0.000
 Gap=     0.164 Goal=   None    Shift=    0.000
 RMSDP=1.33D-06 MaxDP=6.46D-05 DE=-9.89D-08 OVMax= 4.56D-04

 Cycle  15  Pass 1  IDiag  1:
 RMSU=  1.79D-07    CP:  8.89D-01  7.59D-01  8.50D-01  1.21D+00  1.53D+00
                    CP:  1.62D+00  1.81D+00  1.82D+00  2.03D+00  2.43D+00
                    CP:  2.54D+00  3.00D+00  2.54D+00  2.01D+00
 E= -347.326385891348     Delta-E=       -0.000000051419 Rises=F Damp=F
 DIIS: error= 2.03D-06 at cycle  15 NSaved=  15.
 NSaved=15 IEnMin=15 EnMin= -347.326385891348     IErMin=15 ErrMin= 2.03D-06
 ErrMax= 2.03D-06 EMaxC= 1.00D-01 BMatC= 4.72D-09 BMatP= 1.22D-08
 IDIUse=1 WtCom= 1.00D+00 WtEn= 0.00D+00
 Coeff-Com:  0.346D-04-0.743D-04-0.690D-04-0.418D-03 0.132D-02 0.303D-02
 Coeff-Com: -0.120D-02-0.181D-01-0.245D-01 0.107D+00 0.102D+00-0.180D+00
 Coeff-Com: -0.530D+00 0.332D+00 0.121D+01
 Coeff:      0.346D-04-0.743D-04-0.690D-04-0.418D-03 0.132D-02 0.303D-02
 Coeff:     -0.120D-02-0.181D-01-0.245D-01 0.107D+00 0.102D+00-0.180D+00
 Coeff:     -0.530D+00 0.332D+00 0.121D+01
 Gap=     0.271 Goal=   None    Shift=    0.000
 Gap=     0.164 Goal=   None    Shift=    0.000
 RMSDP=8.98D-07 MaxDP=4.43D-05 DE=-5.14D-08 OVMax= 3.13D-04

 Cycle  16  Pass 1  IDiag  1:
 RMSU=  1.88D-07    CP:  8.89D-01  7.59D-01  8.50D-01  1.21D+00  1.53D+00
                    CP:  1.62D+00  1.81D+00  1.82D+00  2.05D+00  2.51D+00
                    CP:  2.67D+00  3.00D+00  3.00D+00  2.97D+00  2.25D+00
 E= -347.326385908748     Delta-E=       -0.000000017400 Rises=F Damp=F
 DIIS: error= 9.46D-07 at cycle  16 NSaved=  16.
 NSaved=16 IEnMin=16 EnMin= -347.326385908748     IErMin=16 ErrMin= 9.46D-07
 ErrMax= 9.46D-07 EMaxC= 1.00D-01 BMatC= 1.45D-09 BMatP= 4.72D-09
 IDIUse=1 WtCom= 1.00D+00 WtEn= 0.00D+00
 Coeff-Com: -0.464D-05 0.474D-05 0.103D-03 0.130D-03-0.324D-03 0.884D-04
 Coeff-Com: -0.485D-03 0.392D-02-0.103D-02-0.341D-01-0.620D-02 0.168D+00
 Coeff-Com:  0.148D-01-0.373D+00-0.167D+00 0.139D+01
 Coeff:     -0.464D-05 0.474D-05 0.103D-03 0.130D-03-0.324D-03 0.884D-04
 Coeff:     -0.485D-03 0.392D-02-0.103D-02-0.341D-01-0.620D-02 0.168D+00
 Coeff:      0.148D-01-0.373D+00-0.167D+00 0.139D+01
 Gap=     0.271 Goal=   None    Shift=    0.000
 Gap=     0.164 Goal=   None    Shift=    0.000
 RMSDP=4.28D-07 MaxDP=1.78D-05 DE=-1.74D-08 OVMax= 1.26D-04

 Cycle  17  Pass 1  IDiag  1:
 RMSU=  1.74D-07    CP:  8.89D-01  7.59D-01  8.50D-01  1.21D+00  1.53D+00
                    CP:  1.62D+00  1.81D+00  1.82D+00  2.05D+00  2.53D+00
                    CP:  2.69D+00  3.00D+00  3.00D+00  3.00D+00  2.99D+00
                    CP:  1.48D+00
 E= -347.326385912782     Delta-E=       -0.000000004034 Rises=F Damp=F
 DIIS: error= 6.04D-07 at cycle  17 NSaved=  17.
 NSaved=17 IEnMin=17 EnMin= -347.326385912782     IErMin=17 ErrMin= 6.04D-07
 ErrMax= 6.04D-07 EMaxC= 1.00D-01 BMatC= 3.77D-10 BMatP= 1.45D-09
 IDIUse=1 WtCom= 1.00D+00 WtEn= 0.00D+00
 Coeff-Com: -0.886D-05 0.167D-04 0.614D-04 0.150D-03-0.344D-03-0.751D-03
 Coeff-Com: -0.325D-03 0.449D-02 0.541D-02-0.251D-01-0.217D-01 0.439D-01
 Coeff-Com:  0.127D+00-0.822D-01-0.334D+00 0.159D-01 0.127D+01
 Coeff:     -0.886D-05 0.167D-04 0.614D-04 0.150D-03-0.344D-03-0.751D-03
 Coeff:     -0.325D-03 0.449D-02 0.541D-02-0.251D-01-0.217D-01 0.439D-01
 Coeff:      0.127D+00-0.822D-01-0.334D+00 0.159D-01 0.127D+01
 Gap=     0.271 Goal=   None    Shift=    0.000
 Gap=     0.164 Goal=   None    Shift=    0.000
 RMSDP=2.53D-07 MaxDP=1.36D-05 DE=-4.03D-09 OVMax= 5.95D-05

 Cycle  18  Pass 1  IDiag  1:
 RMSU=  7.44D-08    CP:  8.89D-01  7.59D-01  8.50D-01  1.21D+00  1.53D+00
                    CP:  1.62D+00  1.81D+00  1.82D+00  2.04D+00  2.53D+00
                    CP:  2.71D+00  3.00D+00  3.00D+00  3.00D+00  3.00D+00
                    CP:  1.76D+00  1.56D+00
 E= -347.326385913880     Delta-E=       -0.000000001098 Rises=F Damp=F
 DIIS: error= 2.45D-07 at cycle  18 NSaved=  18.
 NSaved=18 IEnMin=18 EnMin= -347.326385913880     IErMin=18 ErrMin= 2.45D-07
 ErrMax= 2.45D-07 EMaxC= 1.00D-01 BMatC= 1.19D-10 BMatP= 3.77D-10
 IDIUse=1 WtCom= 1.00D+00 WtEn= 0.00D+00
 Coeff-Com:  0.672D-06-0.801D-06-0.475D-05-0.593D-05 0.341D-04-0.200D-03
 Coeff-Com: -0.161D-03-0.598D-03 0.111D-02 0.101D-01 0.109D-02-0.583D-01
 Coeff-Com:  0.138D-01 0.130D+00-0.989D-02-0.516D+00 0.318D+00 0.111D+01
 Coeff:      0.672D-06-0.801D-06-0.475D-05-0.593D-05 0.341D-04-0.200D-03
 Coeff:     -0.161D-03-0.598D-03 0.111D-02 0.101D-01 0.109D-02-0.583D-01
 Coeff:      0.138D-01 0.130D+00-0.989D-02-0.516D+00 0.318D+00 0.111D+01
 Gap=     0.271 Goal=   None    Shift=    0.000
 Gap=     0.164 Goal=   None    Shift=    0.000
 RMSDP=1.54D-07 MaxDP=1.25D-05 DE=-1.10D-09 OVMax= 3.03D-05

 Cycle  19  Pass 1  IDiag  1:
 RMSU=  1.76D-08    CP:  8.89D-01  7.59D-01  8.50D-01  1.21D+00  1.53D+00
                    CP:  1.62D+00  1.81D+00  1.81D+00  2.04D+00  2.52D+00
                    CP:  2.71D+00  3.00D+00  3.00D+00  3.00D+00  3.00D+00
                    CP:  1.91D+00  1.87D+00  1.54D+00
 E= -347.326385914142     Delta-E=       -0.000000000261 Rises=F Damp=F
 DIIS: error= 9.09D-08 at cycle  19 NSaved=  19.
 NSaved=19 IEnMin=19 EnMin= -347.326385914142     IErMin=19 ErrMin= 9.09D-08
 ErrMax= 9.09D-08 EMaxC= 1.00D-01 BMatC= 2.03D-11 BMatP= 1.19D-10
 IDIUse=1 WtCom= 1.00D+00 WtEn= 0.00D+00
 Coeff-Com:  0.206D-05-0.370D-05-0.663D-05-0.283D-04 0.601D-04 0.969D-04
 Coeff-Com:  0.707D-05-0.820D-03-0.742D-03 0.691D-02 0.489D-02-0.221D-01
 Coeff-Com: -0.218D-01 0.491D-01 0.649D-01-0.140D+00-0.187D+00 0.269D+00
 Coeff-Com:  0.978D+00
 Coeff:      0.206D-05-0.370D-05-0.663D-05-0.283D-04 0.601D-04 0.969D-04
 Coeff:      0.707D-05-0.820D-03-0.742D-03 0.691D-02 0.489D-02-0.221D-01
 Coeff:     -0.218D-01 0.491D-01 0.649D-01-0.140D+00-0.187D+00 0.269D+00
 Coeff:      0.978D+00
 Gap=     0.271 Goal=   None    Shift=    0.000
 Gap=     0.164 Goal=   None    Shift=    0.000
 RMSDP=5.55D-08 MaxDP=4.53D-06 DE=-2.61D-10 OVMax= 1.21D-05

 Cycle  20  Pass 1  IDiag  1:
 Restarting incremental Fock formation.
 E= -347.326385914230     Delta-E=       -0.000000000088 Rises=F Damp=F
 DIIS: error= 3.52D-08 at cycle  20 NSaved=  20.
 NSaved=20 IEnMin=20 EnMin= -347.326385914230     IErMin=20 ErrMin= 3.52D-08
 ErrMax= 3.52D-08 EMaxC= 1.00D-01 BMatC= 1.35D-12 BMatP= 2.03D-11
 IDIUse=1 WtCom= 1.00D+00 WtEn= 0.00D+00
 Coeff-Com: -0.113D-06 0.118D-06 0.342D-05 0.633D-05 0.205D-05 0.221D-04
 Coeff-Com: -0.499D-04 0.304D-04-0.590D-04-0.765D-03 0.315D-03 0.560D-02
 Coeff-Com: -0.375D-02-0.143D-01 0.595D-02 0.651D-01-0.495D-01-0.156D+00
 Coeff-Com:  0.415D-01 0.111D+01
 Coeff:     -0.113D-06 0.118D-06 0.342D-05 0.633D-05 0.205D-05 0.221D-04
 Coeff:     -0.499D-04 0.304D-04-0.590D-04-0.765D-03 0.315D-03 0.560D-02
 Coeff:     -0.375D-02-0.143D-01 0.595D-02 0.651D-01-0.495D-01-0.156D+00
 Coeff:      0.415D-01 0.111D+01
 Gap=     0.271 Goal=   None    Shift=    0.000
 Gap=     0.164 Goal=   None    Shift=    0.000
 RMSDP=1.09D-08 MaxDP=6.62D-07 DE=-8.79D-11 OVMax= 1.93D-06

 Cycle  21  Pass 1  IDiag  1:
 RMSU=  5.98D-09    CP:  1.00D+00
 E= -347.326385914230     Delta-E=       -0.000000000001 Rises=F Damp=F
 DIIS: error= 1.45D-08 at cycle  21 NSaved=  20.
 NSaved=20 IEnMin=20 EnMin= -347.326385914230     IErMin=20 ErrMin= 1.45D-08
 ErrMax= 1.45D-08 EMaxC= 1.00D-01 BMatC= 1.29D-13 BMatP= 1.35D-12
 IDIUse=1 WtCom= 1.00D+00 WtEn= 0.00D+00
 Coeff-Com: -0.434D-07-0.911D-06-0.121D-05-0.205D-05 0.253D-05 0.182D-04
 Coeff-Com:  0.172D-04-0.503D-04-0.357D-03-0.173D-03 0.138D-02 0.969D-03
 Coeff-Com: -0.278D-02-0.387D-02 0.794D-02 0.143D-01-0.130D-01-0.564D-01
 Coeff-Com: -0.472D-01 0.110D+01
 Coeff:     -0.434D-07-0.911D-06-0.121D-05-0.205D-05 0.253D-05 0.182D-04
 Coeff:      0.172D-04-0.503D-04-0.357D-03-0.173D-03 0.138D-02 0.969D-03
 Coeff:     -0.278D-02-0.387D-02 0.794D-02 0.143D-01-0.130D-01-0.564D-01
 Coeff:     -0.472D-01 0.110D+01
 Gap=     0.271 Goal=   None    Shift=    0.000
 Gap=     0.164 Goal=   None    Shift=    0.000
 RMSDP=2.92D-09 MaxDP=2.69D-07 DE=-6.82D-13 OVMax= 4.56D-07

 SCF Done:  E(UM062X) =  -347.326385914     A.U. after   21 cycles
             Convg  =    0.2919D-08             -V/T =  2.0042
 <Sx>= 0.0000 <Sy>= 0.0000 <Sz>= 0.5000 <S**2>= 0.7566 S= 0.5033
 <L.S>= 0.000000000000E+00
 KE= 3.458814901416D+02 PE=-1.410199504461D+03 EE= 4.177347984918D+02
 Annihilation of the first spin contaminant:
 S**2 before annihilation     0.7566,   after     0.7500
 Leave Link  502 at Tue Jun 12 20:40:09 2018, MaxMem=  671088640 cpu:    4265.9
 (Enter /shared/apps/gaussian/G09_LINUX_LINDA/g09/l801.exe)
 Range of M.O.s used for correlation:     1   337
 NBasis=   337 NAE=    29 NBE=    28 NFC=     0 NFV=     0
 NROrb=    337 NOA=    29 NOB=    28 NVA=   308 NVB=   309

 **** Warning!!: The largest alpha MO coefficient is  0.76756183D+02


 **** Warning!!: The largest beta MO coefficient is  0.81040197D+02

 Leave Link  801 at Tue Jun 12 20:40:09 2018, MaxMem=  671088640 cpu:       0.5
 (Enter /shared/apps/gaussian/G09_LINUX_LINDA/g09/l1101.exe)
 Using compressed storage, NAtomX=    18.
 Will process  19 centers per pass.
 Leave Link 1101 at Tue Jun 12 20:40:15 2018, MaxMem=  671088640 cpu:      63.8
 (Enter /shared/apps/gaussian/G09_LINUX_LINDA/g09/l1102.exe)
 Symmetrizing basis deriv contribution to polar:
 IMax=3 JMax=2 DiffMx= 0.00D+00
 Leave Link 1102 at Tue Jun 12 20:40:16 2018, MaxMem=  671088640 cpu:       2.0
 (Enter /shared/apps/gaussian/G09_LINUX_LINDA/g09/l1110.exe)
 Forming Gx(P) for the SCF density, NAtomX=    18.
 Integral derivatives from FoFDir/FoFCou, PRISM(SPDF).
 Do as many integral derivatives as possible in FoFDir.
 G2DrvN: MDV=     671088392.
 G2DrvN: will do    19 centers at a time, making    1 passes doing MaxLOS=3.
 Calling FoFCou, ICntrl=  3107 FMM=F I1Cent=   0 AccDes= 0.00D+00.
 FoFCou: FMM=F IPFlag=           0 FMFlag=      100000 FMFlg1=           0
         NFxFlg=           0 DoJE=F BraDBF=F KetDBF=F FulRan=T
         Omega=  0.000000  0.000000  1.000000  0.000000  0.000000 ICntrl=    3107 IOpCl=  1
         NMat0=    1 NMatS0=    1 NMatT0=    0 NMatD0=    1 NMtDS0=    0 NMtDT0=    0
         I1Cent=           0 NGrid=           0.
 Symmetry not used in FoFCou.
 FoFDir/FoFCou used for L=0 through L=3.
 End of G2Drv Frequency-dependent properties file   721 does not exist.
 End of G2Drv Frequency-dependent properties file   722 does not exist.
 Leave Link 1110 at Tue Jun 12 20:46:27 2018, MaxMem=  671088640 cpu:    3703.3
 (Enter /shared/apps/gaussian/G09_LINUX_LINDA/g09/l1002.exe)
 Minotr:  UHF open shell wavefunction.
          IDoAtm=111111111111111111
          Direct CPHF calculation.
          Differentiating once with respect to nuclear coordinates.
          Requested convergence is 1.0D-06 RMS, and 1.0D-05 maximum.
          Secondary convergence is 1.0D-12 RMS, and 1.0D-12 maximum.
          NewPWx=T KeepS1=F KeepF1=F KeepIn=T MapXYZ=F SortEE=F KeepMc=T.
          MDV=     671088456 using IRadAn=       2.
 Generate precomputed XC quadrature information.
          Solving linear equations simultaneously, MaxMat=       0.
 Integrals replicated using symmetry in FoFDir.
 MinBra= 0 MaxBra= 3 Meth= 1.
 IRaf=       0 NMat=  57 IRICut=     142 DoRegI=T DoRafI=T ISym2E= 2 JSym2E=2.
          There are    57 degrees of freedom in the 1st order CPHF.  IDoFFX=5.
     51 vectors produced by pass  0 Test12= 3.08D-10 1.75D-07 XBig12= 2.04D-01 2.25D-01.
 AX will form    51 AO Fock derivatives at one time.
     51 vectors produced by pass  1 Test12= 3.08D-10 1.75D-07 XBig12= 4.15D-02 8.49D-02.
     51 vectors produced by pass  2 Test12= 3.08D-10 1.75D-07 XBig12= 2.08D-03 1.75D-02.
     51 vectors produced by pass  3 Test12= 3.08D-10 1.75D-07 XBig12= 1.76D-05 6.78D-04.
     51 vectors produced by pass  4 Test12= 3.08D-10 1.75D-07 XBig12= 2.53D-07 8.45D-05.
     27 vectors produced by pass  5 Test12= 3.08D-10 1.75D-07 XBig12= 5.02D-09 8.64D-06.
      6 vectors produced by pass  6 Test12= 3.08D-10 1.75D-07 XBig12= 4.68D-11 5.87D-07.
 Inverted reduced A of dimension   288 with in-core refinement.
 End of Minotr Frequency-dependent properties file   721 does not exist.
 End of Minotr Frequency-dependent properties file   722 does not exist.
 Leave Link 1002 at Tue Jun 12 21:01:36 2018, MaxMem=  671088640 cpu:    9064.5
 (Enter /shared/apps/gaussian/G09_LINUX_LINDA/g09/l601.exe)
 Copying SCF densities to generalized density rwf, IOpCl= 1 IROHF=0.

 **********************************************************************

            Population analysis using the SCF density.

 **********************************************************************

 Orbital symmetries:
 Alpha Orbitals:
       Occupied  (A) (A) (A) (A) (A) (A) (A) (A) (A) (A) (A) (A)
                 (A) (A) (A) (A) (A) (A) (A) (A) (A) (A) (A) (A)
                 (A) (A) (A) (A) (A)
       Virtual   (A) (A) (A) (A) (A) (A) (A) (A) (A) (A) (A) (A)
                 (A) (A) (A) (A) (A) (A) (A) (A) (A) (A) (A) (A)
                 (A) (A) (A) (A) (A) (A) (A) (A) (A) (A) (A) (A)
                 (A) (A) (A) (A) (A) (A) (A) (A) (A) (A) (A) (A)
                 (A) (A) (A) (A) (A) (A) (A) (A) (A) (A) (A) (A)
                 (A) (A) (A) (A) (A) (A) (A) (A) (A) (A) (A) (A)
                 (A) (A) (A) (A) (A) (A) (A) (A) (A) (A) (A) (A)
                 (A) (A) (A) (A) (A) (A) (A) (A) (A) (A) (A) (A)
                 (A) (A) (A) (A) (A) (A) (A) (A) (A) (A) (A) (A)
                 (A) (A) (A) (A) (A) (A) (A) (A) (A) (A) (A) (A)
                 (A) (A) (A) (A) (A) (A) (A) (A) (A) (A) (A) (A)
                 (A) (A) (A) (A) (A) (A) (A) (A) (A) (A) (A) (A)
                 (A) (A) (A) (A) (A) (A) (A) (A) (A) (A) (A) (A)
                 (A) (A) (A) (A) (A) (A) (A) (A) (A) (A) (A) (A)
                 (A) (A) (A) (A) (A) (A) (A) (A) (A) (A) (A) (A)
                 (A) (A) (A) (A) (A) (A) (A) (A) (A) (A) (A) (A)
                 (A) (A) (A) (A) (A) (A) (A) (A) (A) (A) (A) (A)
                 (A) (A) (A) (A) (A) (A) (A) (A) (A) (A) (A) (A)
                 (A) (A) (A) (A) (A) (A) (A) (A) (A) (A) (A) (A)
                 (A) (A) (A) (A) (A) (A) (A) (A) (A) (A) (A) (A)
                 (A) (A) (A) (A) (A) (A) (A) (A) (A) (A) (A) (A)
                 (A) (A) (A) (A) (A) (A) (A) (A) (A) (A) (A) (A)
                 (A) (A) (A) (A) (A) (A) (A) (A) (A) (A) (A) (A)
                 (A) (A) (A) (A) (A) (A) (A) (A) (A) (A) (A) (A)
                 (A) (A) (A) (A) (A) (A) (A) (A) (A) (A) (A) (A)
                 (A) (A) (A) (A) (A) (A) (A) (A)
 Beta  Orbitals:
       Occupied  (A) (A) (A) (A) (A) (A) (A) (A) (A) (A) (A) (A)
                 (A) (A) (A) (A) (A) (A) (A) (A) (A) (A) (A) (A)
                 (A) (A) (A) (A)
       Virtual   (A) (A) (A) (A) (A) (A) (A) (A) (A) (A) (A) (A)
                 (A) (A) (A) (A) (A) (A) (A) (A) (A) (A) (A) (A)
                 (A) (A) (A) (A) (A) (A) (A) (A) (A) (A) (A) (A)
                 (A) (A) (A) (A) (A) (A) (A) (A) (A) (A) (A) (A)
                 (A) (A) (A) (A) (A) (A) (A) (A) (A) (A) (A) (A)
                 (A) (A) (A) (A) (A) (A) (A) (A) (A) (A) (A) (A)
                 (A) (A) (A) (A) (A) (A) (A) (A) (A) (A) (A) (A)
                 (A) (A) (A) (A) (A) (A) (A) (A) (A) (A) (A) (A)
                 (A) (A) (A) (A) (A) (A) (A) (A) (A) (A) (A) (A)
                 (A) (A) (A) (A) (A) (A) (A) (A) (A) (A) (A) (A)
                 (A) (A) (A) (A) (A) (A) (A) (A) (A) (A) (A) (A)
                 (A) (A) (A) (A) (A) (A) (A) (A) (A) (A) (A) (A)
                 (A) (A) (A) (A) (A) (A) (A) (A) (A) (A) (A) (A)
                 (A) (A) (A) (A) (A) (A) (A) (A) (A) (A) (A) (A)
                 (A) (A) (A) (A) (A) (A) (A) (A) (A) (A) (A) (A)
                 (A) (A) (A) (A) (A) (A) (A) (A) (A) (A) (A) (A)
                 (A) (A) (A) (A) (A) (A) (A) (A) (A) (A) (A) (A)
                 (A) (A) (A) (A) (A) (A) (A) (A) (A) (A) (A) (A)
                 (A) (A) (A) (A) (A) (A) (A) (A) (A) (A) (A) (A)
                 (A) (A) (A) (A) (A) (A) (A) (A) (A) (A) (A) (A)
                 (A) (A) (A) (A) (A) (A) (A) (A) (A) (A) (A) (A)
                 (A) (A) (A) (A) (A) (A) (A) (A) (A) (A) (A) (A)
                 (A) (A) (A) (A) (A) (A) (A) (A) (A) (A) (A) (A)
                 (A) (A) (A) (A) (A) (A) (A) (A) (A) (A) (A) (A)
                 (A) (A) (A) (A) (A) (A) (A) (A) (A) (A) (A) (A)
                 (A) (A) (A) (A) (A) (A) (A) (A) (A)
 The electronic state is 2-A.
 Alpha  occ. eigenvalues --  -19.75917 -19.72030 -10.53363 -10.52994 -10.52727
 Alpha  occ. eigenvalues --  -10.51908 -10.51752  -1.35092  -1.02145  -0.90470
 Alpha  occ. eigenvalues --   -0.80770  -0.77763  -0.71448  -0.68069  -0.61621
 Alpha  occ. eigenvalues --   -0.60186  -0.57250  -0.51897  -0.49571  -0.48737
 Alpha  occ. eigenvalues --   -0.45488  -0.44245  -0.42731  -0.41522  -0.40866
 Alpha  occ. eigenvalues --   -0.39746  -0.38433  -0.35330  -0.26590
 Alpha virt. eigenvalues --    0.00538   0.02471   0.03324   0.03609   0.04410
 Alpha virt. eigenvalues --    0.05489   0.05606   0.05957   0.07124   0.08258
 Alpha virt. eigenvalues --    0.08866   0.09401   0.10211   0.11749   0.12342
 Alpha virt. eigenvalues --    0.12577   0.14082   0.14578   0.15395   0.15948
 Alpha virt. eigenvalues --    0.17932   0.18203   0.18688   0.20219   0.20394
 Alpha virt. eigenvalues --    0.21012   0.21374   0.21995   0.22744   0.23664
 Alpha virt. eigenvalues --    0.24438   0.24738   0.26270   0.27471   0.28260
 Alpha virt. eigenvalues --    0.29405   0.29804   0.30406   0.32241   0.33202
 Alpha virt. eigenvalues --    0.35564   0.37747   0.38426   0.39680   0.41660
 Alpha virt. eigenvalues --    0.42406   0.44490   0.47503   0.47886   0.48896
 Alpha virt. eigenvalues --    0.49752   0.51568   0.52182   0.54210   0.55904
 Alpha virt. eigenvalues --    0.56414   0.57568   0.57764   0.58703   0.59673
 Alpha virt. eigenvalues --    0.60547   0.61500   0.63360   0.63917   0.65219
 Alpha virt. eigenvalues --    0.66678   0.66951   0.68818   0.69360   0.69588
 Alpha virt. eigenvalues --    0.70639   0.72198   0.72517   0.75506   0.76985
 Alpha virt. eigenvalues --    0.79986   0.81040   0.82273   0.83185   0.84720
 Alpha virt. eigenvalues --    0.87765   0.89063   0.91033   0.91643   0.92372
 Alpha virt. eigenvalues --    0.94704   0.97042   0.97969   0.98658   1.00941
 Alpha virt. eigenvalues --    1.03750   1.04736   1.05222   1.06530   1.08612
 Alpha virt. eigenvalues --    1.10749   1.12146   1.12841   1.13664   1.14427
 Alpha virt. eigenvalues --    1.15779   1.17606   1.18473   1.19814   1.20510
 Alpha virt. eigenvalues --    1.21891   1.24173   1.25508   1.28509   1.30323
 Alpha virt. eigenvalues --    1.31173   1.33322   1.34793   1.35591   1.35720
 Alpha virt. eigenvalues --    1.37436   1.37676   1.39488   1.39649   1.41354
 Alpha virt. eigenvalues --    1.42412   1.43147   1.44580   1.46373   1.46815
 Alpha virt. eigenvalues --    1.48280   1.49443   1.50765   1.52434   1.54449
 Alpha virt. eigenvalues --    1.57492   1.57980   1.59072   1.60137   1.60527
 Alpha virt. eigenvalues --    1.61462   1.64192   1.65906   1.67319   1.69495
 Alpha virt. eigenvalues --    1.72397   1.74031   1.83236   1.83548   1.91308
 Alpha virt. eigenvalues --    1.92055   2.03139   2.17375   2.24530   2.29924
 Alpha virt. eigenvalues --    2.36289   2.38621   2.44370   2.51680   2.52740
 Alpha virt. eigenvalues --    2.55799   2.58339   2.60418   2.61785   2.67751
 Alpha virt. eigenvalues --    2.71279   2.73808   2.76764   2.81821   2.83544
 Alpha virt. eigenvalues --    2.85042   2.87428   2.89654   2.92396   2.92830
 Alpha virt. eigenvalues --    2.93642   2.94923   2.95851   2.98468   2.99371
 Alpha virt. eigenvalues --    3.00622   3.04235   3.06251   3.07414   3.10480
 Alpha virt. eigenvalues --    3.14054   3.14868   3.16620   3.18730   3.19872
 Alpha virt. eigenvalues --    3.20234   3.22311   3.23573   3.24542   3.25202
 Alpha virt. eigenvalues --    3.26471   3.31168   3.31926   3.33967   3.37429
 Alpha virt. eigenvalues --    3.40605   3.43773   3.45644   3.46040   3.48362
 Alpha virt. eigenvalues --    3.50214   3.51130   3.53645   3.54370   3.57416
 Alpha virt. eigenvalues --    3.61082   3.62241   3.64588   3.66285   3.69596
 Alpha virt. eigenvalues --    3.70411   3.71703   3.73446   3.74775   3.76863
 Alpha virt. eigenvalues --    3.81435   3.83702   3.84643   3.85214   3.88049
 Alpha virt. eigenvalues --    3.91853   3.93446   3.94717   3.96896   3.98520
 Alpha virt. eigenvalues --    4.00866   4.02616   4.04922   4.08056   4.08408
 Alpha virt. eigenvalues --    4.11021   4.12547   4.14303   4.15215   4.19298
 Alpha virt. eigenvalues --    4.21637   4.22453   4.24756   4.26773   4.29538
 Alpha virt. eigenvalues --    4.32072   4.35021   4.36097   4.37286   4.39989
 Alpha virt. eigenvalues --    4.42144   4.42936   4.46033   4.48256   4.49088
 Alpha virt. eigenvalues --    4.53348   4.56089   4.58714   4.59522   4.63185
 Alpha virt. eigenvalues --    4.64707   4.66465   4.67807   4.71132   4.74876
 Alpha virt. eigenvalues --    4.77629   4.80834   4.91110   4.96202   4.97909
 Alpha virt. eigenvalues --    4.98811   5.01449   5.08190   5.13980   5.14716
 Alpha virt. eigenvalues --    5.18512   5.21252   5.25453   5.35050   5.37619
 Alpha virt. eigenvalues --    5.43562   5.49417   5.50313   5.51075   5.52104
 Alpha virt. eigenvalues --    5.53112   5.54062   5.57718   5.58802   5.68717
 Alpha virt. eigenvalues --    5.71592   5.83416   6.33358   6.52564   6.65982
 Alpha virt. eigenvalues --    6.72655   6.84184   6.86482   6.96168   6.96917
 Alpha virt. eigenvalues --    7.15912   7.27875   7.38939   7.51777   7.88538
 Alpha virt. eigenvalues --    8.05947  24.05368  24.33351  24.38963  24.40891
 Alpha virt. eigenvalues --   24.85722  49.93599  50.01875
  Beta  occ. eigenvalues --  -19.75219 -19.70712 -10.53340 -10.52997 -10.52729
  Beta  occ. eigenvalues --  -10.51802 -10.51757  -1.32077  -0.97843  -0.90371
  Beta  occ. eigenvalues --   -0.80484  -0.77747  -0.70617  -0.66855  -0.59718
  Beta  occ. eigenvalues --   -0.57056  -0.51824  -0.51449  -0.49419  -0.48641
  Beta  occ. eigenvalues --   -0.45408  -0.44041  -0.42269  -0.40311  -0.39313
  Beta  occ. eigenvalues --   -0.37811  -0.35548  -0.26553
  Beta virt. eigenvalues --   -0.10149   0.00755   0.02611   0.03361   0.03555
  Beta virt. eigenvalues --    0.04585   0.05470   0.05601   0.06038   0.07179
  Beta virt. eigenvalues --    0.08352   0.08890   0.09673   0.10063   0.11967
  Beta virt. eigenvalues --    0.12541   0.12776   0.14081   0.14672   0.15699
  Beta virt. eigenvalues --    0.15930   0.18175   0.18362   0.19014   0.20401
  Beta virt. eigenvalues --    0.20750   0.21220   0.21360   0.22176   0.22798
  Beta virt. eigenvalues --    0.23704   0.24481   0.24934   0.26394   0.27557
  Beta virt. eigenvalues --    0.28349   0.29696   0.29889   0.30624   0.32059
  Beta virt. eigenvalues --    0.33255   0.35582   0.37614   0.38424   0.39676
  Beta virt. eigenvalues --    0.41657   0.42816   0.44378   0.47476   0.47891
  Beta virt. eigenvalues --    0.49068   0.49794   0.51682   0.52249   0.54460
  Beta virt. eigenvalues --    0.55939   0.56487   0.57595   0.57833   0.58709
  Beta virt. eigenvalues --    0.59726   0.60554   0.61492   0.63336   0.63825
  Beta virt. eigenvalues --    0.65288   0.66751   0.66949   0.68878   0.69380
  Beta virt. eigenvalues --    0.69645   0.70831   0.72260   0.72571   0.75553
  Beta virt. eigenvalues --    0.77035   0.79973   0.81149   0.82323   0.83233
  Beta virt. eigenvalues --    0.84681   0.87839   0.89148   0.91076   0.91689
  Beta virt. eigenvalues --    0.92540   0.94963   0.97068   0.97991   0.99132
  Beta virt. eigenvalues --    1.00981   1.04342   1.05103   1.06464   1.06861
  Beta virt. eigenvalues --    1.08728   1.10793   1.12311   1.13119   1.13811
  Beta virt. eigenvalues --    1.15455   1.16629   1.18031   1.18795   1.19855
[...]
    12  H    0.011533   0.000005   0.004113  -0.016339  -0.023704   0.519422
    13  H    0.003551   0.000019  -0.000079  -0.002074  -0.000096   0.002277
    14  H   -0.010291   0.000972  -0.000087   0.007308  -0.000013  -0.003282
    15  H    0.019827  -0.000046  -0.000087  -0.000044  -0.000004   0.000002
    16  H    0.402913  -0.000001  -0.000767  -0.000130  -0.000020   0.000182
    17  H    0.426638   0.000000   0.000267  -0.000004   0.000005  -0.000004
    18  H    0.393252  -0.000009  -0.001016   0.000267  -0.000002  -0.000104
             13         14         15         16         17         18
     1  O   -0.001173  -0.004770   0.000679   0.000034   0.000002  -0.000028
     2  O   -0.000100   0.001105  -0.000031  -0.000003   0.000003  -0.000006
     3  C   -0.026316  -0.009019   0.006761  -0.036710  -0.005568  -0.012182
     4  C   -0.033586  -0.007575  -0.084344  -0.007479  -0.079168  -0.013752
     5  C    0.007872   0.007701   0.000730   0.002431   0.001600   0.003697
     6  C    0.412375   0.365373   0.435403   0.002495   0.026881  -0.009812
     7  C    0.003551  -0.010291   0.019827   0.402913   0.426638   0.393252
     8  H    0.000019   0.000972  -0.000046  -0.000001   0.000000  -0.000009
     9  H   -0.000079  -0.000087  -0.000087  -0.000767   0.000267  -0.001016
    10  H   -0.002074   0.007308  -0.000044  -0.000130  -0.000004   0.000267
    11  H   -0.000096  -0.000013  -0.000004  -0.000020   0.000005  -0.000002
    12  H    0.002277  -0.003282   0.000002   0.000182  -0.000004  -0.000104
    13  H    0.524808  -0.031268  -0.025701   0.000026   0.000279  -0.000281
    14  H   -0.031268   0.522133  -0.026568  -0.000395   0.000309   0.000280
    15  H   -0.025701  -0.026568   0.531160   0.000415   0.000441   0.000591
    16  H    0.000026  -0.000395   0.000415   0.536039  -0.023497  -0.033852
    17  H    0.000279   0.000309   0.000441  -0.023497   0.540570  -0.023994
    18  H   -0.000281   0.000280   0.000591  -0.033852  -0.023994   0.536901
 Mulliken atomic charges:
              1
     1  O   -0.295582
     2  O   -0.212848
     3  C    0.077233
     4  C    0.510279
     5  C   -0.659119
     6  C   -0.784413
     7  C   -0.671523
     8  H    0.254081
     9  H    0.156447
    10  H    0.338267
    11  H    0.164913
    12  H    0.170291
    13  H    0.169464
    14  H    0.188088
    15  H    0.140815
    16  H    0.158319
    17  H    0.135241
    18  H    0.160049
 Sum of Mulliken atomic charges =   0.00000
 Mulliken charges with hydrogens summed into heavy atoms:
              1
     1  O    0.042685
     2  O    0.041234
     3  C    0.233679
     4  C    0.510279
     5  C   -0.323916
     6  C   -0.286046
     7  C   -0.217915
 Sum of Mulliken charges with hydrogens summed into heavy atoms =   0.00000
          Atomic-Atomic Spin Densities.
              1          2          3          4          5          6
     1  O    0.553153  -0.074984   0.016841   0.007174  -0.062770  -0.002050
     2  O   -0.074984   0.136271  -0.005620  -0.003366   0.014991  -0.000029
     3  C    0.016841  -0.005620  -0.152901   0.070406  -0.010695  -0.016845
     4  C    0.007174  -0.003366   0.070406   0.285911  -0.063239  -0.003116
     5  C   -0.062770   0.014991  -0.010695  -0.063239   0.541966  -0.016347
     6  C   -0.002050  -0.000029  -0.016845  -0.003116  -0.016347  -0.013142
     7  C   -0.005524   0.001240  -0.021862  -0.012143   0.006667   0.008429
     8  H    0.000138   0.000306   0.000027  -0.000168  -0.000163   0.000031
     9  H   -0.000502   0.000142   0.008583  -0.005729  -0.002663   0.000355
    10  H   -0.056413   0.018031  -0.023723   0.006229   0.089474   0.007436
    11  H    0.001261  -0.000332   0.000178   0.003388  -0.008361   0.000891
    12  H    0.003596  -0.000572   0.013137  -0.001497  -0.019540   0.000306
    13  H    0.001212  -0.000184   0.005278  -0.008531  -0.005698   0.005517
    14  H   -0.006289   0.001542  -0.005991  -0.008368   0.008643   0.004583
    15  H   -0.000147   0.000031   0.000067  -0.001292   0.000068   0.000352
    16  H    0.000055  -0.000011   0.001797  -0.012745  -0.000608   0.000101
    17  H    0.000001   0.000000  -0.000065   0.000214  -0.000012   0.000660
    18  H   -0.000167   0.000073  -0.001986  -0.005367   0.000826   0.001621
              7          8          9         10         11         12
     1  O   -0.005524   0.000138  -0.000502  -0.056413   0.001261   0.003596
     2  O    0.001240   0.000306   0.000142   0.018031  -0.000332  -0.000572
     3  C   -0.021862   0.000027   0.008583  -0.023723   0.000178   0.013137
     4  C   -0.012143  -0.000168  -0.005729   0.006229   0.003388  -0.001497
     5  C    0.006667  -0.000163  -0.002663   0.089474  -0.008361  -0.019540
     6  C    0.008429   0.000031   0.000355   0.007436   0.000891   0.000306
     7  C   -0.008363   0.000283   0.000024   0.002709  -0.000162   0.000046
     8  H    0.000283  -0.005214   0.000002   0.001013   0.000002  -0.000003
     9  H    0.000024   0.000002   0.011423   0.000054  -0.000082  -0.000649
    10  H    0.002709   0.001013   0.000054  -0.079667   0.002026  -0.003417
    11  H   -0.000162   0.000002  -0.000082   0.002026  -0.022171   0.004828
    12  H    0.000046  -0.000003  -0.000649  -0.003417   0.004828  -0.015655
    13  H    0.000308  -0.000010  -0.000102  -0.001163   0.000054   0.001528
    14  H    0.001310   0.000143   0.000116   0.003548  -0.000052  -0.000608
    15  H    0.001085   0.000004   0.000006   0.000091  -0.000002  -0.000039
    16  H    0.009214   0.000000  -0.000592  -0.000048   0.000010   0.000057
    17  H   -0.001001   0.000000  -0.000010  -0.000002   0.000000  -0.000001
    18  H    0.004349   0.000003   0.000459   0.000032  -0.000008  -0.000018
             13         14         15         16         17         18
     1  O    0.001212  -0.006289  -0.000147   0.000055   0.000001  -0.000167
     2  O   -0.000184   0.001542   0.000031  -0.000011   0.000000   0.000073
     3  C    0.005278  -0.005991   0.000067   0.001797  -0.000065  -0.001986
     4  C   -0.008531  -0.008368  -0.001292  -0.012745   0.000214  -0.005367
     5  C   -0.005698   0.008643   0.000068  -0.000608  -0.000012   0.000826
     6  C    0.005517   0.004583   0.000352   0.000101   0.000660   0.001621
     7  C    0.000308   0.001310   0.001085   0.009214  -0.001001   0.004349
     8  H   -0.000010   0.000143   0.000004   0.000000   0.000000   0.000003
     9  H   -0.000102   0.000116   0.000006  -0.000592  -0.000010   0.000459
    10  H   -0.001163   0.003548   0.000091  -0.000048  -0.000002   0.000032
    11  H    0.000054  -0.000052  -0.000002   0.000010   0.000000  -0.000008
    12  H    0.001528  -0.000608  -0.000039   0.000057  -0.000001  -0.000018
    13  H    0.016923  -0.004289  -0.000732   0.000246  -0.000014  -0.000097
    14  H   -0.004289   0.014909   0.000713  -0.000136  -0.000002   0.000213
    15  H   -0.000732   0.000713   0.000010  -0.000094   0.000027   0.000063
    16  H    0.000246  -0.000136  -0.000094   0.015341  -0.000188  -0.003246
    17  H   -0.000014  -0.000002   0.000027  -0.000188   0.000888  -0.000001
    18  H   -0.000097   0.000213   0.000063  -0.003246  -0.000001   0.012366
 Mulliken atomic spin densities:
              1
     1  O    0.374583
     2  O    0.087528
     3  C   -0.123373
     4  C    0.247759
     5  C    0.472539
     6  C   -0.021249
     7  C   -0.013390
     8  H   -0.003607
     9  H    0.010833
    10  H   -0.033791
    11  H   -0.018532
    12  H   -0.018500
    13  H    0.010247
    14  H    0.009985
    15  H    0.000211
    16  H    0.009151
    17  H    0.000494
    18  H    0.009112
 Sum of Mulliken atomic spin densities =   1.00000
 Electronic spatial extent (au):  <R**2>=           1224.8377
 Charge=              0.0000 electrons
 Dipole moment (field-independent basis, Debye):
    X=              3.4291    Y=             -0.8642    Z=             -0.3962  Tot=              3.5585
 Quadrupole moment (field-independent basis, Debye-Ang):
   XX=            -53.7778   YY=            -39.1353   ZZ=            -44.6986
   XY=              1.5462   XZ=              0.5569   YZ=              0.8121
 Traceless Quadrupole moment (field-independent basis, Debye-Ang):
   XX=             -7.9073   YY=              6.7353   ZZ=              1.1720
   XY=              1.5462   XZ=              0.5569   YZ=              0.8121
 Octapole moment (field-independent basis, Debye-Ang**2):
  XXX=             17.6144  YYY=             -9.1920  ZZZ=             -0.9653  XYY=            -15.6262
  XXY=             -9.0164  XXZ=             -2.3996  XZZ=             -2.8163  YZZ=             -0.5942
  YYZ=             -4.2570  XYZ=             -3.8600
 Hexadecapole moment (field-independent basis, Debye-Ang**3):
 XXXX=          -1152.5816 YYYY=           -301.4820 ZZZZ=           -211.4108 XXXY=             17.6810
 XXXZ=             -1.1601 YYYX=             22.1730 YYYZ=              3.6941 ZZZX=              5.6680
 ZZZY=              7.6982 XXYY=           -205.4355 XXZZ=           -217.7849 YYZZ=            -83.6148
 XXYZ=              1.6257 YYXZ=             11.4377 ZZXY=              7.5472
 N-N= 2.957967872112D+02 E-N=-2.096015071629D+03  KE= 5.171737026297D+02
                          Isotropic Fermi Contact Couplings
        Atom                 a.u.       MegaHertz       Gauss      10(-4) cm-1
     1  O(17)              0.06077     -36.83770     -13.14461     -12.28773
     2  O(17)              0.01451      -8.79474      -3.13818      -2.93361
     3  C(13)             -0.02229     -25.05976      -8.94195      -8.35904
     4  C(13)              0.03236      36.37897      12.98092      12.13472
     5  C(13)              0.13442     151.11826      53.92275      50.40763
     6  C(13)             -0.00882      -9.91769      -3.53888      -3.30819
     7  C(13)             -0.00848      -9.52969      -3.40043      -3.17876
     8  H(1)              -0.00193      -8.64324      -3.08412      -2.88307
     9  H(1)               0.00474      21.19272       7.56209       7.06913
    10  H(1)              -0.03206    -143.29440     -51.13100     -47.79787
    11  H(1)              -0.00325     -14.53715      -5.18722      -4.84907
    12  H(1)              -0.00118      -5.25882      -1.87648      -1.75415
    13  H(1)               0.00590      26.37219       9.41025       8.79681
    14  H(1)               0.00397      17.74510       6.33189       5.91913
    15  H(1)               0.00001       0.05783       0.02064       0.01929
    16  H(1)               0.00589      26.31581       9.39014       8.77801
    17  H(1)              -0.00001      -0.04999      -0.01784      -0.01667
    18  H(1)               0.00537      24.00022       8.56387       8.00561
 --------------------------------------------------------
       Center         ----  Spin Dipole Couplings  ----
                      3XX-RR        3YY-RR        3ZZ-RR
 --------------------------------------------------------
     1   Atom        0.243439     -0.406385      0.162946
     2   Atom        0.271027     -0.025674     -0.245353
     3   Atom        0.025431     -0.000163     -0.025268
     4   Atom        0.038098     -0.038468      0.000370
     5   Atom        0.183691      0.065666     -0.249356
     6   Atom       -0.001484     -0.000324      0.001808
     7   Atom        0.003434     -0.000871     -0.002563
     8   Atom       -0.005169      0.019919     -0.014750
     9   Atom        0.001808     -0.001566     -0.000241
    10   Atom        0.054406      0.023693     -0.078100
    11   Atom       -0.006586      0.021515     -0.014929
    12   Atom       -0.015462     -0.015468      0.030930
    13   Atom       -0.000967     -0.002128      0.003095
    14   Atom        0.002239      0.001567     -0.003806
    15   Atom       -0.001070      0.001462     -0.000392
    16   Atom        0.004226     -0.001884     -0.002342
    17   Atom        0.001864      0.000531     -0.002395
    18   Atom       -0.000038     -0.002032      0.002070
 --------------------------------------------------------
                        XY            XZ            YZ
 --------------------------------------------------------
     1   Atom        0.771491     -1.101364     -0.727651
     2   Atom        0.330475     -0.319323     -0.213311
     3   Atom       -0.032021     -0.043637     -0.039332
     4   Atom        0.114848      0.141539      0.106936
     5   Atom        0.369813      0.005033     -0.001349
     6   Atom       -0.001585      0.003775      0.000004
     7   Atom        0.002046      0.002076      0.003947
     8   Atom       -0.006649     -0.002302      0.008491
     9   Atom       -0.004409     -0.002147     -0.002476
    10   Atom        0.119000      0.008938      0.007228
    11   Atom       -0.005399      0.013306     -0.025648
    12   Atom        0.013353      0.009270      0.009232
    13   Atom       -0.001738      0.001825     -0.001929
    14   Atom       -0.002444      0.000118     -0.004290
    15   Atom       -0.001585      0.001047     -0.003042
    16   Atom        0.000433     -0.002851     -0.000147
    17   Atom       -0.003220     -0.000594      0.000737
    18   Atom       -0.001854     -0.003034      0.002146
 --------------------------------------------------------


 ---------------------------------------------------------------------------------
              Anisotropic Spin Dipole Couplings in Principal Axis System
 ---------------------------------------------------------------------------------

       Atom             a.u.   MegaHertz   Gauss  10(-4) cm-1        Axes

              Baa    -0.9188    66.484    23.723    22.177 -0.5980  0.7983 -0.0719
     1 O(17)  Bbb    -0.8934    64.644    23.067    21.563  0.4678  0.4204  0.7774
              Bcc     1.8122  -131.128   -46.790   -43.740  0.6508  0.4313 -0.6249
 
              Baa    -0.4102    29.685    10.592     9.902  0.3145  0.2393  0.9186
     2 O(17)  Bbb    -0.2394    17.324     6.182     5.779 -0.5549  0.8315 -0.0266
              Bcc     0.6497   -47.009   -16.774   -15.681  0.7702  0.5014 -0.3943
 
              Baa    -0.0814   -10.926    -3.899    -3.644  0.4519  0.5266  0.7201
     3 C(13)  Bbb     0.0286     3.834     1.368     1.279  0.0036  0.8061 -0.5918
              Bcc     0.0528     7.092     2.531     2.366  0.8921 -0.2700 -0.3624
 
              Baa    -0.1282   -17.203    -6.139    -5.738 -0.1786 -0.6508  0.7379
     4 C(13)  Bbb    -0.1197   -16.068    -5.734    -5.360  0.7336 -0.5879 -0.3410
              Bcc     0.2479    33.272    11.872    11.098  0.6558  0.4804  0.5824
 
              Baa    -0.2539   -34.069   -12.157   -11.364 -0.4727  0.5500  0.6885
     5 C(13)  Bbb    -0.2453   -32.916   -11.745   -10.980  0.4447 -0.5257  0.7252
              Bcc     0.4992    66.985    23.902    22.344  0.7608  0.6490  0.0039
 
              Baa    -0.0044    -0.590    -0.211    -0.197  0.8106  0.3158 -0.4932
     6 C(13)  Bbb     0.0000    -0.006    -0.002    -0.002 -0.1624  0.9303  0.3288
              Bcc     0.0044     0.597     0.213     0.199  0.5627 -0.1864  0.8054
 
              Baa    -0.0058    -0.774    -0.276    -0.258 -0.0402 -0.6169  0.7860
     7 C(13)  Bbb    -0.0001    -0.009    -0.003    -0.003  0.6352 -0.6230 -0.4565
              Bcc     0.0058     0.783     0.279     0.261  0.7713  0.4809  0.4169
 
              Baa    -0.0168    -8.949    -3.193    -2.985  0.0715 -0.2126  0.9745
     8 H(1)   Bbb    -0.0068    -3.638    -1.298    -1.214  0.9690  0.2465 -0.0174
              Bcc     0.0236    12.587     4.491     4.199 -0.2365  0.9455  0.2236
 
              Baa    -0.0063    -3.384    -1.208    -1.129  0.5125  0.7176  0.4716
     9 H(1)   Bbb     0.0015     0.783     0.279     0.261 -0.1888 -0.4416  0.8771
              Bcc     0.0049     2.601     0.928     0.868  0.8377 -0.5385 -0.0909
 
              Baa    -0.0810   -43.234   -15.427   -14.421 -0.6546  0.7304  0.1951
    10 H(1)   Bbb    -0.0786   -41.916   -14.957   -13.982  0.0934 -0.1780  0.9796
              Bcc     0.1596    85.150    30.384    28.403  0.7502  0.6595  0.0483
 
              Baa    -0.0319   -17.012    -6.070    -5.675 -0.3687  0.3719  0.8519
    11 H(1)   Bbb    -0.0056    -3.013    -1.075    -1.005  0.8962  0.3855  0.2196
              Bcc     0.0375    20.026     7.146     6.680 -0.2467  0.8445 -0.4754
 
              Baa    -0.0288   -15.376    -5.487    -5.129  0.7072 -0.7070 -0.0005
    12 H(1)   Bbb    -0.0067    -3.556    -1.269    -1.186  0.6676  0.6680 -0.3287
              Bcc     0.0355    18.932     6.755     6.315  0.2327  0.2321  0.9444
 
              Baa    -0.0034    -1.832    -0.654    -0.611  0.5198  0.8478  0.1052
    13 H(1)   Bbb    -0.0012    -0.663    -0.236    -0.221  0.7637 -0.4060 -0.5019
              Bcc     0.0047     2.494     0.890     0.832  0.3828 -0.3412  0.8585
 
              Baa    -0.0063    -3.375    -1.204    -1.126  0.1322  0.5046  0.8531
    14 H(1)   Bbb     0.0008     0.452     0.161     0.151  0.8093  0.4420 -0.3869
              Bcc     0.0055     2.923     1.043     0.975 -0.5724  0.7416 -0.3499
 
              Baa    -0.0027    -1.417    -0.505    -0.473  0.0998  0.6158  0.7815
    15 H(1)   Bbb    -0.0017    -0.918    -0.328    -0.306  0.9390  0.2014 -0.2786
              Bcc     0.0044     2.334     0.833     0.779 -0.3290  0.7617 -0.5582
 
              Baa    -0.0034    -1.818    -0.649    -0.606  0.3504 -0.0090  0.9366
    16 H(1)   Bbb    -0.0019    -1.021    -0.364    -0.340 -0.0562  0.9979  0.0306
              Bcc     0.0053     2.838     1.013     0.947  0.9349  0.0634 -0.3491
 
              Baa    -0.0026    -1.383    -0.494    -0.461 -0.1340 -0.3562  0.9248
    17 H(1)   Bbb    -0.0020    -1.075    -0.384    -0.359  0.6283  0.6911  0.3572
              Bcc     0.0046     2.459     0.877     0.820  0.7663 -0.6289 -0.1312
 
              Baa    -0.0032    -1.697    -0.606    -0.566  0.4004  0.9057 -0.1389
    18 H(1)   Bbb    -0.0021    -1.139    -0.406    -0.380  0.7320 -0.2250  0.6431
              Bcc     0.0053     2.836     1.012     0.946 -0.5513  0.3592  0.7531
 

 ---------------------------------------------------------------------------------

 No NMR shielding tensors so no spin-rotation constants.
 Leave Link  601 at Tue Jun 12 22:30:10 2018, MaxMem=  671088640 cpu:      29.2
 (Enter /shared/apps/gaussian/G09_LINUX_LINDA/g09/l9999.exe)
 1\1\GINC-COMPUTE-3-041\FTS\UM062X\6-311+G(2df,2p)\C5H11O2(2)\ROOT\12-J
 un-2018\0\\#p m062x/6-311+g(2df,2p) opt=(ts,calcfc,noeigentest,ModRedu
 n)\\Gaussian input prepared by ASE\\0,2\O,-2.7935740475,0.1015690507,0
 .4149457593\O,-3.4686905094,-1.0602692351,-0.0194740015\C,0.3509515222
 ,0.5621793021,-0.9910054636\C,0.9944012804,-0.1089022253,-0.0134132693
 \C,-0.762635926,1.4831683547,-0.7690616276\C,0.5830924325,0.0190862935
 ,1.4341619204\C,2.1491682322,-1.001547287,-0.3871402276\H,-2.971222473
 6,-1.7893477816,0.4295620192\H,0.6779024428,0.4442411755,-2.0212187952
 \H,-1.8542475319,0.6643713689,-0.2709088633\H,-1.1659755267,1.90794098
 81,-1.694216563\H,-0.5045528243,2.3089166319,-0.0662092529\H,0.6695599
 387,1.0766105858,1.7609722361\H,-0.465498473,-0.3221842064,1.562072020
 1\H,1.2262759791,-0.5970558412,2.0962549426\H,2.9419788257,-0.40183158
 57,-0.8824520311\H,2.5915187964,-1.4950310078,0.503091734\H,1.80164786
 22,-1.7917145809,-1.0859605365\\Version=EM64L-G09RevB.01\State=2-A\HF=
 -347.3455686\S2=0.77377\S2-1=0.\S2A=0.750339\RMSD=6.144e-09\RMSF=7.857
 e-03\Dipole=1.3520098,-0.3633291,0.0101139\Quadrupole=-5.8995413,4.174
 5598,1.7249815,1.0649187,0.0188017,-1.8213328\PG=C01 [X(C5H11O2)]\\@


 A great many people think they are thinking when they
 are merely rearranging their prejudices.
                               -- William James
 Job cpu time:  0 days 19 hours 28 minutes 17.3 seconds.
 File lengths (MBytes):  RWF=    362 Int=      0 D2E=      0 Chk=     12 Scr=      1
 Normal termination of Gaussian 09 at Tue Jun 12 22:30:11 2018.
