 Entering Gaussian System, Link 0=g09
 Initial command:
 /shared/apps/gaussian/G09_LINUX_LINDA/g09/l1.exe /home/harms.n/Code/AutoTST/discovery_test/test/Gau-29162.inp -scrdir=/home/harms.n/Code/AutoTST/discovery_test/test/
 Entering Link 1 = /shared/apps/gaussian/G09_LINUX_LINDA/g09/l1.exe PID=     29163.
  
 Copyright (c) 1988,1990,1992,1993,1995,1998,2003,2009,2010,
            Gaussian, Inc.  All Rights Reserved.
  
 This is part of the Gaussian(R) 09 program.  It is based on
 the Gaussian(R) 03 system (copyright 2003, Gaussian, Inc.),
 the Gaussian(R) 98 system (copyright 1998, Gaussian, Inc.),
 the Gaussian(R) 94 system (copyright 1995, Gaussian, Inc.),
 the Gaussian 92(TM) system (copyright 1992, Gaussian, Inc.),
 the Gaussian 90(TM) system (copyright 1990, Gaussian, Inc.),
 the Gaussian 88(TM) system (copyright 1988, Gaussian, Inc.),
 the Gaussian 86(TM) system (copyright 1986, Carnegie Mellon
 University), and the Gaussian 82(TM) system (copyright 1983,
 Carnegie Mellon University). Gaussian is a federally registered
 trademark of Gaussian, Inc.
  
 This software contains proprietary and confidential information,
 including trade secrets, belonging to Gaussian, Inc.
  
 This software is provided under written license and may be
 used, copied, transmitted, or stored only in accord with that
 written license.
  
 The following legend is applicable only to US Government
 contracts under FAR:
  
                    RESTRICTED RIGHTS LEGEND
  
 Use, reproduction and disclosure by the US Government is
 subject to restrictions as set forth in subparagraphs (a)
 and (c) of the Commercial Computer Software - Restricted
 Rights clause in FAR 52.227-19.
  
 Gaussian, Inc.
 340 Quinnipiac St., Bldg. 40, Wallingford CT 06492
  
  
 ---------------------------------------------------------------
 Warning -- This program may not be used in any manner that
 competes with the business of Gaussian, Inc. or will provide
 assistance to any competitor of Gaussian, Inc.  The licensee
 of this program is prohibited from giving any competitor of
 Gaussian, Inc. access to this program.  By using this program,
 the user acknowledges that Gaussian, Inc. is engaged in the
 business of creating and licensing software in the field of
 computational chemistry and represents and warrants to the
 licensee that it is not a competitor of Gaussian, Inc. and that
 it will not use this program in any manner prohibited above.
 ---------------------------------------------------------------
  

 Cite this work as:
 Gaussian 09, Revision B.01,
 M. J. Frisch, G. W. Trucks, H. B. Schlegel, G. E. Scuseria, 
 M. A. Robb, J. R. Cheeseman, G. Scalmani, V. Barone, B. Mennucci, 
 G. A. Petersson, H. Nakatsuji, M. Caricato, X. Li, H. P. Hratchian, 
 A. F. Izmaylov, J. Bloino, G. Zheng, J. L. Sonnenberg, M. Hada, 
 M. Ehara, K. Toyota, R. Fukuda, J. Hasegawa, M. Ishida, T. Nakajima, 
 Y. Honda, O. Kitao, H. Nakai, T. Vreven, J. A. Montgomery, Jr., 
 J. E. Peralta, F. Ogliaro, M. Bearpark, J. J. Heyd, E. Brothers, 
 K. N. Kudin, V. N. Staroverov, T. Keith, R. Kobayashi, J. Normand, 
 K. Raghavachari, A. Rendell, J. C. Burant, S. S. Iyengar, J. Tomasi, 
 M. Cossi, N. Rega, J. M. Millam, M. Klene, J. E. Knox, J. B. Cross, 
 V. Bakken, C. Adamo, J. Jaramillo, R. Gomperts, R. E. Stratmann, 
 O. Yazyev, A. J. Austin, R. Cammi, C. Pomelli, J. W. Ochterski, 
 R. L. Martin, K. Morokuma, V. G. Zakrzewski, G. A. Voth, 
 P. Salvador, J. J. Dannenberg, S. Dapprich, A. D. Daniels, 
 O. Farkas, J. B. Foresman, J. V. Ortiz, J. Cioslowski, 
 and D. J. Fox, Gaussian, Inc., Wallingford CT, 2010.
 
 ******************************************
 Gaussian 09:  EM64L-G09RevB.01 12-Aug-2010
                13-Jun-2018 
 ******************************************
 %nprocshared=20
 Will use up to   20 processors via shared memory.
 %mem=5GB
 ---------------------------------------------------------
 #p m062x/6-311+g(2df,2p) opt=(ts,calcfc,noeigentest) freq
 ---------------------------------------------------------
 1/5=1,10=4,11=1,14=-1,18=20,26=3,38=1/1,3;
 2/9=110,12=2,17=6,18=5,40=1/2;
 3/5=4,6=6,7=214,11=2,16=1,25=1,30=1,71=2,74=-55/1,2,3;
 4//1;
 5/5=2,38=5/2;
 8/6=4,10=90,11=11/1;
 11/6=1,8=1,9=11,15=111,16=1/1,2,10;
 10/6=1,7=6,13=1/2;
 6/7=2,8=2,9=2,10=2,28=1/1;
 7/10=1,18=20,25=1/1,2,3,16;
 1/5=1,10=4,11=1,14=-1,18=20/3(2);
 2/9=110/2;
 99//99;
 2/9=110/2;
 3/5=4,6=6,7=214,11=2,16=1,25=1,30=1,71=1,74=-55/1,2,3;
 4/5=5,16=3/1;
 5/5=2,38=5/2;
 7//1,2,3,16;
 1/5=1,11=1,14=-1,18=20/3(-5);
 2/9=110/2;
 6/7=2,8=2,9=2,10=2,19=2,28=1/1;
 99/9=1/99;
 Leave Link    1 at Wed Jun 13 09:58:02 2018, MaxMem=  671088640 cpu:       1.1
 (Enter /shared/apps/gaussian/G09_LINUX_LINDA/g09/l101.exe)
 ------------------------------
 Gaussian input prepared by ASE
 ------------------------------
 Symbolic Z-matrix:
 Charge =  0 Multiplicity = 2
 O                    -2.79357   0.10157   0.41495 
 O                    -3.46869  -1.06027  -0.01947 
 C                     0.35095   0.56218  -0.99101 
 C                     0.9944   -0.1089   -0.01341 
 C                    -0.76264   1.48317  -0.76906 
 C                     0.58309   0.01909   1.43416 
 C                     2.14917  -1.00155  -0.38714 
 H                    -2.97122  -1.78935   0.42956 
 H                     0.6779    0.44424  -2.02122 
 H                    -1.85425   0.66437  -0.27091 
 H                    -1.16598   1.90794  -1.69422 
 H                    -0.50455   2.30892  -0.06621 
 H                     0.66956   1.07661   1.76097 
 H                    -0.4655   -0.32218   1.56207 
 H                     1.22628  -0.59706   2.09625 
 H                     2.94198  -0.40183  -0.88245 
 H                     2.59152  -1.49503   0.50309 
 H                     1.80165  -1.79171  -1.08596 
 
 NAtoms=     18 NQM=     18 NQMF=      0 NMic=      0 NMicF=      0 NTot=     18.
                    Isotopes and Nuclear Properties:
 (Nuclear quadrupole moments (NQMom) in fm**2, nuclear magnetic moments (NMagM)
  in nuclear magnetons)

  Atom         1           2           3           4           5           6           7           8           9          10
 IAtWgt=          16          16          12          12          12          12          12           1           1           1
 AtmWgt=  15.9949146  15.9949146  12.0000000  12.0000000  12.0000000  12.0000000  12.0000000   1.0078250   1.0078250   1.0078250
 NucSpn=           0           0           0           0           0           0           0           1           1           1
 AtZEff=   0.0000000   0.0000000   0.0000000   0.0000000   0.0000000   0.0000000   0.0000000   0.0000000   0.0000000   0.0000000
 NQMom=    0.0000000   0.0000000   0.0000000   0.0000000   0.0000000   0.0000000   0.0000000   0.0000000   0.0000000   0.0000000
 NMagM=    0.0000000   0.0000000   0.0000000   0.0000000   0.0000000   0.0000000   0.0000000   2.7928460   2.7928460   2.7928460

  Atom        11          12          13          14          15          16          17          18
 IAtWgt=           1           1           1           1           1           1           1           1
 AtmWgt=   1.0078250   1.0078250   1.0078250   1.0078250   1.0078250   1.0078250   1.0078250   1.0078250
 NucSpn=           1           1           1           1           1           1           1           1
 AtZEff=   0.0000000   0.0000000   0.0000000   0.0000000   0.0000000   0.0000000   0.0000000   0.0000000
 NQMom=    0.0000000   0.0000000   0.0000000   0.0000000   0.0000000   0.0000000   0.0000000   0.0000000
 NMagM=    2.7928460   2.7928460   2.7928460   2.7928460   2.7928460   2.7928460   2.7928460   2.7928460
 Leave Link  101 at Wed Jun 13 09:58:03 2018, MaxMem=  671088640 cpu:       1.2
 (Enter /shared/apps/gaussian/G09_LINUX_LINDA/g09/l103.exe)

 GradGradGradGradGradGradGradGradGradGradGradGradGradGradGradGradGradGrad
 Berny optimization.
 Initialization pass.
                           ----------------------------
                           !    Initial Parameters    !
                           ! (Angstroms and Degrees)  !
 --------------------------                            --------------------------
 ! Name  Definition              Value          Derivative Info.                !
 --------------------------------------------------------------------------------
 ! R1    R(1,2)                  1.4122         calculate D2E/DX2 analytically  !
 ! R2    R(1,10)                 1.2921         calculate D2E/DX2 analytically  !
 ! R3    R(2,8)                  0.9903         calculate D2E/DX2 analytically  !
 ! R4    R(3,4)                  1.3491         calculate D2E/DX2 analytically  !
 ! R5    R(3,5)                  1.462          calculate D2E/DX2 analytically  !
 ! R6    R(3,9)                  1.0873         calculate D2E/DX2 analytically  !
 ! R7    R(4,6)                  1.5103         calculate D2E/DX2 analytically  !
 ! R8    R(4,7)                  1.5066         calculate D2E/DX2 analytically  !
 ! R9    R(5,10)                 1.4527         calculate D2E/DX2 analytically  !
 ! R10   R(5,11)                 1.095          calculate D2E/DX2 analytically  !
 ! R11   R(5,12)                 1.1147         calculate D2E/DX2 analytically  !
 ! R12   R(6,13)                 1.1102         calculate D2E/DX2 analytically  !
 ! R13   R(6,14)                 1.1101         calculate D2E/DX2 analytically  !
 ! R14   R(6,15)                 1.1098         calculate D2E/DX2 analytically  !
 ! R15   R(7,16)                 1.1106         calculate D2E/DX2 analytically  !
 ! R16   R(7,17)                 1.1098         calculate D2E/DX2 analytically  !
 ! R17   R(7,18)                 1.1106         calculate D2E/DX2 analytically  !
 ! A1    A(2,1,10)             122.861          calculate D2E/DX2 analytically  !
 ! A2    A(1,2,8)              103.0655         calculate D2E/DX2 analytically  !
 ! A3    A(4,3,5)              124.5151         calculate D2E/DX2 analytically  !
 ! A4    A(4,3,9)              119.2895         calculate D2E/DX2 analytically  !
 ! A5    A(5,3,9)              116.1811         calculate D2E/DX2 analytically  !
 ! A6    A(3,4,6)              121.4991         calculate D2E/DX2 analytically  !
 ! A7    A(3,4,7)              118.7197         calculate D2E/DX2 analytically  !
 ! A8    A(6,4,7)              119.7811         calculate D2E/DX2 analytically  !
 ! A9    A(3,5,10)             105.6258         calculate D2E/DX2 analytically  !
 ! A10   A(3,5,11)             113.3698         calculate D2E/DX2 analytically  !
 ! A11   A(3,5,12)             112.7076         calculate D2E/DX2 analytically  !
 ! A12   A(10,5,11)            103.3907         calculate D2E/DX2 analytically  !
 ! A13   A(10,5,12)            112.0439         calculate D2E/DX2 analytically  !
 ! A14   A(11,5,12)            109.3088         calculate D2E/DX2 analytically  !
 ! A15   A(4,6,13)             109.977          calculate D2E/DX2 analytically  !
 ! A16   A(4,6,14)             109.9759         calculate D2E/DX2 analytically  !
 ! A17   A(4,6,15)             111.5261         calculate D2E/DX2 analytically  !
 ! A18   A(13,6,14)            109.4187         calculate D2E/DX2 analytically  !
 ! A19   A(13,6,15)            107.943          calculate D2E/DX2 analytically  !
 ! A20   A(14,6,15)            107.9394         calculate D2E/DX2 analytically  !
 ! A21   A(4,7,16)             109.744          calculate D2E/DX2 analytically  !
 ! A22   A(4,7,17)             111.7131         calculate D2E/DX2 analytically  !
 ! A23   A(4,7,18)             109.7413         calculate D2E/DX2 analytically  !
 ! A24   A(16,7,17)            108.2587         calculate D2E/DX2 analytically  !
 ! A25   A(16,7,18)            109.0819         calculate D2E/DX2 analytically  !
 ! A26   A(17,7,18)            108.245          calculate D2E/DX2 analytically  !
 ! A27   A(1,10,5)             166.8676         calculate D2E/DX2 analytically  !
 ! D1    D(10,1,2,8)            95.1546         calculate D2E/DX2 analytically  !
 ! D2    D(2,1,10,5)          -172.1474         calculate D2E/DX2 analytically  !
 ! D3    D(5,3,4,6)              1.3699         calculate D2E/DX2 analytically  !
 ! D4    D(5,3,4,7)           -178.5422         calculate D2E/DX2 analytically  !
 ! D5    D(9,3,4,6)            179.9399         calculate D2E/DX2 analytically  !
 ! D6    D(9,3,4,7)              0.0278         calculate D2E/DX2 analytically  !
 ! D7    D(4,3,5,10)           -65.9737         calculate D2E/DX2 analytically  !
 ! D8    D(4,3,5,11)          -178.4827         calculate D2E/DX2 analytically  !
 ! D9    D(4,3,5,12)            56.6764         calculate D2E/DX2 analytically  !
 ! D10   D(9,3,5,10)           115.4161         calculate D2E/DX2 analytically  !
 ! D11   D(9,3,5,11)             2.9071         calculate D2E/DX2 analytically  !
 ! D12   D(9,3,5,12)          -121.9338         calculate D2E/DX2 analytically  !
 ! D13   D(3,4,6,13)           -59.9013         calculate D2E/DX2 analytically  !
 ! D14   D(3,4,6,14)            60.6649         calculate D2E/DX2 analytically  !
 ! D15   D(3,4,6,15)          -179.6208         calculate D2E/DX2 analytically  !
 ! D16   D(7,4,6,13)           120.0099         calculate D2E/DX2 analytically  !
 ! D17   D(7,4,6,14)          -119.4239         calculate D2E/DX2 analytically  !
 ! D18   D(7,4,6,15)             0.2904         calculate D2E/DX2 analytically  !
 ! D19   D(3,4,7,16)            59.9266         calculate D2E/DX2 analytically  !
 ! D20   D(3,4,7,17)          -179.9922         calculate D2E/DX2 analytically  !
 ! D21   D(3,4,7,18)           -59.9301         calculate D2E/DX2 analytically  !
 ! D22   D(6,4,7,16)          -119.9871         calculate D2E/DX2 analytically  !
 ! D23   D(6,4,7,17)             0.0941         calculate D2E/DX2 analytically  !
 ! D24   D(6,4,7,18)           120.1563         calculate D2E/DX2 analytically  !
 ! D25   D(3,5,10,1)           116.493          calculate D2E/DX2 analytically  !
 ! D26   D(11,5,10,1)         -124.1676         calculate D2E/DX2 analytically  !
 ! D27   D(12,5,10,1)           -6.5801         calculate D2E/DX2 analytically  !
 --------------------------------------------------------------------------------
 Trust Radius=3.00D-01 FncErr=1.00D-07 GrdErr=1.00D-06
 Number of steps in this run=     81 maximum allowed number of steps=    108.
 Search for a saddle point of order  1.
 GradGradGradGradGradGradGradGradGradGradGradGradGradGradGradGradGradGrad

 Leave Link  103 at Wed Jun 13 09:58:03 2018, MaxMem=  671088640 cpu:       0.2
 (Enter /shared/apps/gaussian/G09_LINUX_LINDA/g09/l202.exe)
                          Input orientation:                          
 ---------------------------------------------------------------------
 Center     Atomic      Atomic             Coordinates (Angstroms)
 Number     Number       Type             X           Y           Z
 ---------------------------------------------------------------------
      1          8           0       -2.793574    0.101569    0.414946
      2          8           0       -3.468691   -1.060269   -0.019474
      3          6           0        0.350952    0.562179   -0.991005
      4          6           0        0.994401   -0.108902   -0.013413
      5          6           0       -0.762636    1.483168   -0.769062
      6          6           0        0.583092    0.019086    1.434162
      7          6           0        2.149168   -1.001547   -0.387140
      8          1           0       -2.971222   -1.789348    0.429562
      9          1           0        0.677902    0.444241   -2.021219
     10          1           0       -1.854248    0.664371   -0.270909
     11          1           0       -1.165976    1.907941   -1.694217
     12          1           0       -0.504553    2.308917   -0.066209
     13          1           0        0.669560    1.076611    1.760972
     14          1           0       -0.465498   -0.322184    1.562072
     15          1           0        1.226276   -0.597056    2.096255
     16          1           0        2.941979   -0.401832   -0.882452
     17          1           0        2.591519   -1.495031    0.503092
     18          1           0        1.801648   -1.791715   -1.085961
 ---------------------------------------------------------------------
                    Distance matrix (angstroms):
                    1          2          3          4          5
     1  O    0.000000
     2  O    1.412222   0.000000
     3  C    3.475184   4.262145   0.000000
     4  C    3.817924   4.563368   1.349098   0.000000
     5  C    2.726793   3.788626   1.462039   2.488548   0.000000
     6  C    3.528099   4.437906   2.496052   1.510308   2.967948
     7  C    5.127466   5.630183   2.458349   1.506643   3.846853
     8  H    1.899300   0.990284   4.310978   4.329699   4.126005
     9  H    4.254817   4.844044   1.087265   2.106519   2.173113
    10  H    1.292083   2.375717   2.322043   2.962947   1.452653
    11  H    3.218792   4.113093   2.146310   3.399998   1.095001
    12  H    3.216133   4.487729   2.153654   2.845259   1.114661
    13  H    3.841327   4.986117   2.817718   2.158566   2.935566
    14  H    2.629715   3.473503   2.822569   2.158460   2.963406
    15  H    4.412944   5.170453   3.411920   2.177788   4.061175
    16  H    5.901967   6.501919   2.766681   2.152695   4.158155
    17  H    5.617484   6.098215   3.388891   2.176905   4.662446
    18  H    5.191657   5.426682   2.766650   2.152641   4.171431
                    6          7          8          9         10
     6  C    0.000000
     7  C    2.609871   0.000000
     8  H    4.112519   5.244619   0.000000
     9  H    3.482729   2.631566   4.930655   0.000000
    10  H    3.043729   4.337757   2.785504   3.086070   0.000000
    11  H    4.051390   4.600407   4.630259   2.376812   2.011464
    12  H    2.945744   4.254927   4.808952   2.949115   2.137313
    13  H    1.110243   3.335021   4.820961   3.834701   3.266204
    14  H    1.110121   3.331283   3.116697   3.838587   2.502346
    15  H    1.109812   2.680036   4.671019   4.282360   4.084641
    16  H    3.332899   1.110649   6.213898   2.671829   4.951218
    17  H    2.682018   1.109826   5.571007   3.714142   5.002693
    18  H    3.333901   1.110624   5.007705   2.671518   4.479089
                   11         12         13         14         15
    11  H    0.000000
    12  H    1.802407   0.000000
    13  H    3.999829   2.497141   0.000000
    14  H    4.008434   3.094433   1.812332   0.000000
    15  H    5.134740   4.014560   1.795413   1.795273   0.000000
    16  H    4.782186   4.460156   3.786472   4.194394   3.443028
    17  H    5.525138   4.937589   3.448120   3.441274   2.282196
    18  H    4.781654   4.813900   4.196896   3.783061   3.447428
                   16         17         18
    16  H    0.000000
    17  H    1.799344   0.000000
    18  H    1.809294   1.799168   0.000000
 Stoichiometry    C5H11O2(2)
 Framework group  C1[X(C5H11O2)]
 Deg. of freedom    48
 Full point group                 C1      NOp   1
 Largest Abelian subgroup         C1      NOp   1
 Largest concise Abelian subgroup C1      NOp   1
                         Standard orientation:                         
 ---------------------------------------------------------------------
 Center     Atomic      Atomic             Coordinates (Angstroms)
 Number     Number       Type             X           Y           Z
 ---------------------------------------------------------------------
      1          8           0       -2.332230   -0.073722    0.345433
      2          8           0       -2.989875   -0.743532   -0.709663
      3          6           0        0.874741    1.029258   -0.413298
      4          6           0        1.470821   -0.104508    0.010171
      5          6           0       -0.245336    1.679507    0.265053
      6          6           0        0.993876   -0.833420    1.243963
      7          6           0        2.639076   -0.644378   -0.773216
      8          1           0       -2.515529   -1.611696   -0.753828
      9          1           0        1.248294    1.525227   -1.305834
     10          1           0       -1.360889    0.755991    0.151653
     11          1           0       -0.604639    2.575810   -0.251250
     12          1           0       -0.017519    1.932022    1.326563
     13          1           0        1.068147   -0.168387    2.129883
     14          1           0       -0.060408   -1.154590    1.110906
     15          1           0        1.604317   -1.738485    1.443718
     16          1           0        3.455414    0.108355   -0.796162
     17          1           0        3.038763   -1.577198   -0.323983
     18          1           0        2.321828   -0.867773   -1.813857
 ---------------------------------------------------------------------
 Rotational constants (GHZ):      3.4332608      1.1078816      1.0229983
 Leave Link  202 at Wed Jun 13 09:58:03 2018, MaxMem=  671088640 cpu:       0.8
 (Enter /shared/apps/gaussian/G09_LINUX_LINDA/g09/l301.exe)
 Standard basis: 6-311+G(2df,2p) (5D, 7F)
 Ernie: Thresh=  0.10000D-02 Tol=  0.10000D-05 Strict=F.
 There are   337 symmetry adapted basis functions of A   symmetry.
 Integral buffers will be    131072 words long.
 Raffenetti 2 integral format.
 Two-electron integral symmetry is turned on.
   337 basis functions,   485 primitive gaussians,   372 cartesian basis functions
    29 alpha electrons       28 beta electrons
       nuclear repulsion energy       295.7967872111 Hartrees.
 IExCor= 4336 DFT=T Ex+Corr=M062X ExCW=0 ScaHFX=  0.540000
 ScaDFX=  1.000000  1.000000  1.000000  1.000000 ScalE2=  1.000000  1.000000
 IRadAn=      0 IRanWt=     -1 IRanGd=            0 ICorTp=0
 NAtoms=   18 NActive=   18 NUniq=   18 SFac= 1.00D+00 NAtFMM=   50 NAOKFM=F Big=F
 Leave Link  301 at Wed Jun 13 09:58:03 2018, MaxMem=  671088640 cpu:       1.0
 (Enter /shared/apps/gaussian/G09_LINUX_LINDA/g09/l302.exe)
 NPDir=0 NMtPBC=     1 NCelOv=     1 NCel=       1 NClECP=     1 NCelD=      1
         NCelK=      1 NCelE2=     1 NClLst=     1 CellRange=     0.0.
 One-electron integrals computed using PRISM.
 NBasis=   337 RedAO= T  NBF=   337
 NBsUse=   337 1.00D-06 NBFU=   337
 Precomputing XC quadrature grid using
 IXCGrd= 2 IRadAn=           0 IRanWt=          -1 IRanGd=           0 AccXCQ= 0.00D+00.
 NRdTot=    1163 NPtTot=      147192 NUsed=      155580 NTot=      155612
 NSgBfM=   372   372   372   372   372 NAtAll=    18    18.
 Leave Link  302 at Wed Jun 13 09:58:05 2018, MaxMem=  671088640 cpu:      17.2
 (Enter /shared/apps/gaussian/G09_LINUX_LINDA/g09/l303.exe)
 DipDrv:  MaxL=1.
 Leave Link  303 at Wed Jun 13 09:58:05 2018, MaxMem=  671088640 cpu:       3.2
 (Enter /shared/apps/gaussian/G09_LINUX_LINDA/g09/l401.exe)
 Harris functional with IExCor= 1009 diagonalized for initial guess.
 ExpMin= 4.38D-02 ExpMax= 8.59D+03 ExpMxC= 1.30D+03 IAcc=2 IRadAn=         0 AccDes= 0.00D+00
 HarFok:  IExCor= 1009 AccDes= 0.00D+00 IRadAn=         0 IDoV= 1
 ScaDFX=  1.000000  1.000000  1.000000  1.000000
 FoFCou: FMM=F IPFlag=           0 FMFlag=      100000 FMFlg1=           0
         NFxFlg=           0 DoJE=T BraDBF=F KetDBF=T FulRan=T
         Omega=  0.000000  0.000000  1.000000  0.000000  0.000000 ICntrl=     500 IOpCl=  0
         NMat0=    1 NMatS0=    1 NMatT0=    0 NMatD0=    1 NMtDS0=    0 NMtDT0=    0
         I1Cent=           4 NGrid=           0.
 Petite list used in FoFCou.
 Harris En= -347.243845523680    
 Initial guess orbital symmetries:
 Alpha Orbitals:
       Occupied  (A) (A) (A) (A) (A) (A) (A) (A) (A) (A) (A) (A)
                 (A) (A) (A) (A) (A) (A) (A) (A) (A) (A) (A) (A)
                 (A) (A) (A) (A) (A)
       Virtual   (A) (A) (A) (A) (A) (A) (A) (A) (A) (A) (A) (A)
                 (A) (A) (A) (A) (A) (A) (A) (A) (A) (A) (A) (A)
                 (A) (A) (A) (A) (A) (A) (A) (A) (A) (A) (A) (A)
                 (A) (A) (A) (A) (A) (A) (A) (A) (A) (A) (A) (A)
                 (A) (A) (A) (A) (A) (A) (A) (A) (A) (A) (A) (A)
                 (A) (A) (A) (A) (A) (A) (A) (A) (A) (A) (A) (A)
                 (A) (A) (A) (A) (A) (A) (A) (A) (A) (A) (A) (A)
                 (A) (A) (A) (A) (A) (A) (A) (A) (A) (A) (A) (A)
                 (A) (A) (A) (A) (A) (A) (A) (A) (A) (A) (A) (A)
                 (A) (A) (A) (A) (A) (A) (A) (A) (A) (A) (A) (A)
                 (A) (A) (A) (A) (A) (A) (A) (A) (A) (A) (A) (A)
                 (A) (A) (A) (A) (A) (A) (A) (A) (A) (A) (A) (A)
                 (A) (A) (A) (A) (A) (A) (A) (A) (A) (A) (A) (A)
                 (A) (A) (A) (A) (A) (A) (A) (A) (A) (A) (A) (A)
                 (A) (A) (A) (A) (A) (A) (A) (A) (A) (A) (A) (A)
                 (A) (A) (A) (A) (A) (A) (A) (A) (A) (A) (A) (A)
                 (A) (A) (A) (A) (A) (A) (A) (A) (A) (A) (A) (A)
                 (A) (A) (A) (A) (A) (A) (A) (A) (A) (A) (A) (A)
                 (A) (A) (A) (A) (A) (A) (A) (A) (A) (A) (A) (A)
                 (A) (A) (A) (A) (A) (A) (A) (A) (A) (A) (A) (A)
                 (A) (A) (A) (A) (A) (A) (A) (A) (A) (A) (A) (A)
                 (A) (A) (A) (A) (A) (A) (A) (A) (A) (A) (A) (A)
                 (A) (A) (A) (A) (A) (A) (A) (A) (A) (A) (A) (A)
                 (A) (A) (A) (A) (A) (A) (A) (A) (A) (A) (A) (A)
                 (A) (A) (A) (A) (A) (A) (A) (A) (A) (A) (A) (A)
                 (A) (A) (A) (A) (A) (A) (A) (A)
 Beta  Orbitals:
       Occupied  (A) (A) (A) (A) (A) (A) (A) (A) (A) (A) (A) (A)
                 (A) (A) (A) (A) (A) (A) (A) (A) (A) (A) (A) (A)
                 (A) (A) (A) (A)
       Virtual   (A) (A) (A) (A) (A) (A) (A) (A) (A) (A) (A) (A)
                 (A) (A) (A) (A) (A) (A) (A) (A) (A) (A) (A) (A)
                 (A) (A) (A) (A) (A) (A) (A) (A) (A) (A) (A) (A)
                 (A) (A) (A) (A) (A) (A) (A) (A) (A) (A) (A) (A)
                 (A) (A) (A) (A) (A) (A) (A) (A) (A) (A) (A) (A)
                 (A) (A) (A) (A) (A) (A) (A) (A) (A) (A) (A) (A)
                 (A) (A) (A) (A) (A) (A) (A) (A) (A) (A) (A) (A)
                 (A) (A) (A) (A) (A) (A) (A) (A) (A) (A) (A) (A)
                 (A) (A) (A) (A) (A) (A) (A) (A) (A) (A) (A) (A)
                 (A) (A) (A) (A) (A) (A) (A) (A) (A) (A) (A) (A)
                 (A) (A) (A) (A) (A) (A) (A) (A) (A) (A) (A) (A)
                 (A) (A) (A) (A) (A) (A) (A) (A) (A) (A) (A) (A)
                 (A) (A) (A) (A) (A) (A) (A) (A) (A) (A) (A) (A)
                 (A) (A) (A) (A) (A) (A) (A) (A) (A) (A) (A) (A)
                 (A) (A) (A) (A) (A) (A) (A) (A) (A) (A) (A) (A)
                 (A) (A) (A) (A) (A) (A) (A) (A) (A) (A) (A) (A)
                 (A) (A) (A) (A) (A) (A) (A) (A) (A) (A) (A) (A)
                 (A) (A) (A) (A) (A) (A) (A) (A) (A) (A) (A) (A)
                 (A) (A) (A) (A) (A) (A) (A) (A) (A) (A) (A) (A)
                 (A) (A) (A) (A) (A) (A) (A) (A) (A) (A) (A) (A)
                 (A) (A) (A) (A) (A) (A) (A) (A) (A) (A) (A) (A)
                 (A) (A) (A) (A) (A) (A) (A) (A) (A) (A) (A) (A)
                 (A) (A) (A) (A) (A) (A) (A) (A) (A) (A) (A) (A)
                 (A) (A) (A) (A) (A) (A) (A) (A) (A) (A) (A) (A)
                 (A) (A) (A) (A) (A) (A) (A) (A) (A) (A) (A) (A)
                 (A) (A) (A) (A) (A) (A) (A) (A) (A)
 The electronic state of the initial guess is 2-A.
 Initial guess <Sx>= 0.0000 <Sy>= 0.0000 <Sz>= 0.5000 <S**2>= 0.7500 S= 0.5000
 Leave Link  401 at Wed Jun 13 09:58:12 2018, MaxMem=  671088640 cpu:      62.7
 (Enter /shared/apps/gaussian/G09_LINUX_LINDA/g09/l502.exe)
 UHF open shell SCF:
 Requested convergence on RMS density matrix=1.00D-08 within 128 cycles.
 Requested convergence on MAX density matrix=1.00D-06.
 Requested convergence on             energy=1.00D-06.
 No special actions if energy rises.
 Using DIIS extrapolation, IDIIS=  1040.
 Integral symmetry usage will be decided dynamically.
       155405 words used for storage of precomputed grid.
 IEnd=      598859 IEndB=      598859 NGot=   671088640 MDV=   670645178
 LenX=   670645178 LenY=   670506353
 Fock matrices will be formed incrementally for  20 cycles.

 Cycle   1  Pass 1  IDiag  1:
 FoFCou: FMM=F IPFlag=           0 FMFlag=      100000 FMFlg1=           0
         NFxFlg=           0 DoJE=F BraDBF=F KetDBF=F FulRan=T
         Omega=  0.000000  0.000000  1.000000  0.000000  0.000000 ICntrl=       0 IOpCl=  1
         NMat0=    1 NMatS0=    1 NMatT0=    0 NMatD0=    1 NMtDS0=    0 NMtDT0=    0
         I1Cent=           0 NGrid=           0.
 Symmetry not used in FoFCou.
 E= -347.113758960838    
 DIIS: error= 2.46D-02 at cycle   1 NSaved=   1.
 NSaved= 1 IEnMin= 1 EnMin= -347.113758960838     IErMin= 1 ErrMin= 2.46D-02
 ErrMax= 2.46D-02 EMaxC= 1.00D-01 BMatC= 1.04D+00 BMatP= 1.04D+00
 IDIUse=3 WtCom= 7.54D-01 WtEn= 2.46D-01
 Coeff-Com:  0.100D+01
 Coeff-En:   0.100D+01
 Coeff:      0.100D+01
 Gap=     0.400 Goal=   None    Shift=    0.000
 Gap=     0.302 Goal=   None    Shift=    0.000
 GapD=    0.302 DampG=1.000 DampE=0.500 DampFc=0.5000 IDamp=-1.
 Damping current iteration by 5.00D-01
 RMSDP=3.72D-03 MaxDP=1.98D-01              OVMax= 2.47D-01

 Cycle   2  Pass 1  IDiag  1:
 RMSU=  1.24D-03    CP:  9.24D-01
 E= -347.227630120863     Delta-E=       -0.113871160025 Rises=F Damp=T
 DIIS: error= 7.74D-03 at cycle   2 NSaved=   2.
 NSaved= 2 IEnMin= 2 EnMin= -347.227630120863     IErMin= 2 ErrMin= 7.74D-03
 ErrMax= 7.74D-03 EMaxC= 1.00D-01 BMatC= 8.78D-02 BMatP= 1.04D+00
 IDIUse=3 WtCom= 9.23D-01 WtEn= 7.74D-02
 Coeff-Com: -0.115D+00 0.112D+01
 Coeff-En:   0.000D+00 0.100D+01
 Coeff:     -0.106D+00 0.111D+01
 Gap=     0.307 Goal=   None    Shift=    0.000
 Gap=     0.195 Goal=   None    Shift=    0.000
 RMSDP=1.67D-03 MaxDP=8.11D-02 DE=-1.14D-01 OVMax= 2.43D-01

 Cycle   3  Pass 1  IDiag  1:
 RMSU=  1.17D-03    CP:  9.36D-01  9.00D-01
 E= -347.333671934748     Delta-E=       -0.106041813886 Rises=F Damp=F
 DIIS: error= 6.95D-03 at cycle   3 NSaved=   3.
 NSaved= 3 IEnMin= 3 EnMin= -347.333671934748     IErMin= 3 ErrMin= 6.95D-03
 ErrMax= 6.95D-03 EMaxC= 1.00D-01 BMatC= 4.48D-02 BMatP= 8.78D-02
 IDIUse=3 WtCom= 9.30D-01 WtEn= 6.95D-02
 Coeff-Com: -0.103D+00 0.488D+00 0.615D+00
 Coeff-En:   0.000D+00 0.000D+00 0.100D+01
 Coeff:     -0.956D-01 0.454D+00 0.642D+00
 Gap=     0.298 Goal=   None    Shift=    0.000
 Gap=     0.174 Goal=   None    Shift=    0.000
 RMSDP=6.69D-04 MaxDP=4.79D-02 DE=-1.06D-01 OVMax= 9.11D-02

 Cycle   4  Pass 1  IDiag  1:
 RMSU=  3.00D-04    CP:  9.15D-01  1.01D+00  7.43D-01
 E= -347.342569479275     Delta-E=       -0.008897544526 Rises=F Damp=F
 DIIS: error= 3.54D-03 at cycle   4 NSaved=   4.
 NSaved= 4 IEnMin= 4 EnMin= -347.342569479275     IErMin= 4 ErrMin= 3.54D-03
 ErrMax= 3.54D-03 EMaxC= 1.00D-01 BMatC= 1.17D-02 BMatP= 4.48D-02
 IDIUse=3 WtCom= 9.65D-01 WtEn= 3.54D-02
 Coeff-Com: -0.358D-01 0.835D-01 0.355D+00 0.597D+00
 Coeff-En:   0.000D+00 0.000D+00 0.134D+00 0.866D+00
 Coeff:     -0.345D-01 0.805D-01 0.347D+00 0.607D+00
 Gap=     0.279 Goal=   None    Shift=    0.000
 Gap=     0.179 Goal=   None    Shift=    0.000
 RMSDP=2.25D-04 MaxDP=1.24D-02 DE=-8.90D-03 OVMax= 3.10D-02

 Cycle   5  Pass 1  IDiag  1:
 RMSU=  8.43D-05    CP:  9.18D-01  9.80D-01  8.33D-01  7.81D-01
 E= -347.345170930893     Delta-E=       -0.002601451618 Rises=F Damp=F
 DIIS: error= 8.15D-04 at cycle   5 NSaved=   5.
 NSaved= 5 IEnMin= 5 EnMin= -347.345170930893     IErMin= 5 ErrMin= 8.15D-04
 ErrMax= 8.15D-04 EMaxC= 1.00D-01 BMatC= 4.64D-04 BMatP= 1.17D-02
 IDIUse=3 WtCom= 9.92D-01 WtEn= 8.15D-03
 Coeff-Com: -0.252D-02-0.642D-02 0.628D-01 0.168D+00 0.778D+00
 Coeff-En:   0.000D+00 0.000D+00 0.000D+00 0.000D+00 0.100D+01
 Coeff:     -0.250D-02-0.637D-02 0.622D-01 0.167D+00 0.780D+00
 Gap=     0.281 Goal=   None    Shift=    0.000
 Gap=     0.182 Goal=   None    Shift=    0.000
 RMSDP=7.16D-05 MaxDP=3.93D-03 DE=-2.60D-03 OVMax= 1.11D-02

 Cycle   6  Pass 1  IDiag  1:
 RMSU=  3.54D-05    CP:  9.19D-01  9.64D-01  8.45D-01  8.22D-01  1.26D+00
 E= -347.345397375590     Delta-E=       -0.000226444697 Rises=F Damp=F
 DIIS: error= 5.75D-04 at cycle   6 NSaved=   6.
 NSaved= 6 IEnMin= 6 EnMin= -347.345397375590     IErMin= 6 ErrMin= 5.75D-04
 ErrMax= 5.75D-04 EMaxC= 1.00D-01 BMatC= 2.28D-04 BMatP= 4.64D-04
 IDIUse=3 WtCom= 9.94D-01 WtEn= 5.75D-03
 Coeff-Com:  0.101D-01-0.283D-01-0.755D-01-0.102D+00 0.427D+00 0.769D+00
 Coeff-En:   0.000D+00 0.000D+00 0.000D+00 0.000D+00 0.000D+00 0.100D+01
 Coeff:      0.101D-01-0.281D-01-0.751D-01-0.101D+00 0.424D+00 0.770D+00
 Gap=     0.281 Goal=   None    Shift=    0.000
 Gap=     0.185 Goal=   None    Shift=    0.000
 RMSDP=5.74D-05 MaxDP=3.63D-03 DE=-2.26D-04 OVMax= 9.69D-03

 Cycle   7  Pass 1  IDiag  1:
 RMSU=  2.03D-05    CP:  9.20D-01  9.55D-01  8.56D-01  8.31D-01  1.55D+00
                    CP:  1.26D+00
 E= -347.345525944522     Delta-E=       -0.000128568932 Rises=F Damp=F
 DIIS: error= 3.19D-04 at cycle   7 NSaved=   7.
 NSaved= 7 IEnMin= 7 EnMin= -347.345525944522     IErMin= 7 ErrMin= 3.19D-04
 ErrMax= 3.19D-04 EMaxC= 1.00D-01 BMatC= 6.18D-05 BMatP= 2.28D-04
 IDIUse=3 WtCom= 9.97D-01 WtEn= 3.19D-03
 Coeff-Com:  0.464D-02-0.837D-02-0.521D-01-0.104D+00-0.141D+00 0.361D+00
 Coeff-Com:  0.939D+00
 Coeff-En:   0.000D+00 0.000D+00 0.000D+00 0.000D+00 0.000D+00 0.000D+00
 Coeff-En:   0.100D+01
 Coeff:      0.462D-02-0.835D-02-0.519D-01-0.104D+00-0.140D+00 0.360D+00
 Coeff:      0.939D+00
 Gap=     0.282 Goal=   None    Shift=    0.000
 Gap=     0.187 Goal=   None    Shift=    0.000
 RMSDP=3.58D-05 MaxDP=1.33D-03 DE=-1.29D-04 OVMax= 6.50D-03

 Cycle   8  Pass 1  IDiag  1:
 RMSU=  1.20D-05    CP:  9.21D-01  9.52D-01  8.58D-01  8.52D-01  1.72D+00
                    CP:  1.59D+00  1.33D+00
 E= -347.345564179823     Delta-E=       -0.000038235301 Rises=F Damp=F
 DIIS: error= 5.02D-05 at cycle   8 NSaved=   8.
 NSaved= 8 IEnMin= 8 EnMin= -347.345564179823     IErMin= 8 ErrMin= 5.02D-05
 ErrMax= 5.02D-05 EMaxC= 1.00D-01 BMatC= 5.61D-06 BMatP= 6.18D-05
 IDIUse=1 WtCom= 1.00D+00 WtEn= 0.00D+00
 Coeff-Com: -0.130D-03 0.178D-02-0.475D-02-0.161D-01-0.842D-01 0.238D-01
 Coeff-Com:  0.285D+00 0.795D+00
 Coeff:     -0.130D-03 0.178D-02-0.475D-02-0.161D-01-0.842D-01 0.238D-01
 Coeff:      0.285D+00 0.795D+00
 Gap=     0.282 Goal=   None    Shift=    0.000
 Gap=     0.187 Goal=   None    Shift=    0.000
 RMSDP=7.69D-06 MaxDP=3.84D-04 DE=-3.82D-05 OVMax= 1.39D-03

 Cycle   9  Pass 1  IDiag  1:
 RMSU=  3.85D-06    CP:  9.20D-01  9.52D-01  8.58D-01  8.54D-01  1.73D+00
                    CP:  1.62D+00  1.42D+00  1.18D+00
 E= -347.345567028249     Delta-E=       -0.000002848426 Rises=F Damp=F
 DIIS: error= 3.43D-05 at cycle   9 NSaved=   9.
 NSaved= 9 IEnMin= 9 EnMin= -347.345567028249     IErMin= 9 ErrMin= 3.43D-05
 ErrMax= 3.43D-05 EMaxC= 1.00D-01 BMatC= 1.68D-06 BMatP= 5.61D-06
 IDIUse=1 WtCom= 1.00D+00 WtEn= 0.00D+00
 Coeff-Com: -0.114D-02 0.244D-02 0.114D-01 0.201D-01 0.564D-02-0.881D-01
 Coeff-Com: -0.145D+00 0.303D+00 0.891D+00
 Coeff:     -0.114D-02 0.244D-02 0.114D-01 0.201D-01 0.564D-02-0.881D-01
 Coeff:     -0.145D+00 0.303D+00 0.891D+00
 Gap=     0.282 Goal=   None    Shift=    0.000
 Gap=     0.187 Goal=   None    Shift=    0.000
 RMSDP=5.45D-06 MaxDP=2.14D-04 DE=-2.85D-06 OVMax= 7.72D-04

 Cycle  10  Pass 1  IDiag  1:
 RMSU=  2.05D-06    CP:  9.20D-01  9.52D-01  8.58D-01  8.55D-01  1.74D+00
                    CP:  1.64D+00  1.49D+00  1.39D+00  1.25D+00
 E= -347.345568105082     Delta-E=       -0.000001076834 Rises=F Damp=F
 DIIS: error= 1.69D-05 at cycle  10 NSaved=  10.
 NSaved=10 IEnMin=10 EnMin= -347.345568105082     IErMin=10 ErrMin= 1.69D-05
 ErrMax= 1.69D-05 EMaxC= 1.00D-01 BMatC= 3.01D-07 BMatP= 1.68D-06
 IDIUse=1 WtCom= 1.00D+00 WtEn= 0.00D+00
 Coeff-Com: -0.319D-03 0.540D-03 0.461D-02 0.815D-02 0.137D-01-0.314D-01
 Coeff-Com: -0.829D-01-0.320D-03 0.281D+00 0.807D+00
 Coeff:     -0.319D-03 0.540D-03 0.461D-02 0.815D-02 0.137D-01-0.314D-01
 Coeff:     -0.829D-01-0.320D-03 0.281D+00 0.807D+00
 Gap=     0.282 Goal=   None    Shift=    0.000
 Gap=     0.187 Goal=   None    Shift=    0.000
 RMSDP=2.07D-06 MaxDP=1.12D-04 DE=-1.08D-06 OVMax= 4.36D-04

 Cycle  11  Pass 1  IDiag  1:
 RMSU=  1.01D-06    CP:  9.20D-01  9.52D-01  8.58D-01  8.54D-01  1.74D+00
                    CP:  1.64D+00  1.48D+00  1.41D+00  1.43D+00  1.20D+00
 E= -347.345568343093     Delta-E=       -0.000000238011 Rises=F Damp=F
 DIIS: error= 9.26D-06 at cycle  11 NSaved=  11.
 NSaved=11 IEnMin=11 EnMin= -347.345568343093     IErMin=11 ErrMin= 9.26D-06
 ErrMax= 9.26D-06 EMaxC= 1.00D-01 BMatC= 1.23D-07 BMatP= 3.01D-07
 IDIUse=1 WtCom= 1.00D+00 WtEn= 0.00D+00
 Coeff-Com:  0.303D-03-0.718D-03-0.188D-02-0.386D-02 0.461D-02 0.175D-01
 Coeff-Com:  0.130D-01-0.119D+00-0.207D+00 0.364D+00 0.933D+00
 Coeff:      0.303D-03-0.718D-03-0.188D-02-0.386D-02 0.461D-02 0.175D-01
 Coeff:      0.130D-01-0.119D+00-0.207D+00 0.364D+00 0.933D+00
 Gap=     0.282 Goal=   None    Shift=    0.000
 Gap=     0.187 Goal=   None    Shift=    0.000
 RMSDP=1.94D-06 MaxDP=7.09D-05 DE=-2.38D-07 OVMax= 4.70D-04

 Cycle  12  Pass 1  IDiag  1:
 RMSU=  5.61D-07    CP:  9.20D-01  9.52D-01  8.58D-01  8.54D-01  1.74D+00
                    CP:  1.64D+00  1.49D+00  1.44D+00  1.55D+00  1.59D+00
                    CP:  1.56D+00
 E= -347.345568492550     Delta-E=       -0.000000149456 Rises=F Damp=F
 DIIS: error= 3.94D-06 at cycle  12 NSaved=  12.
 NSaved=12 IEnMin=12 EnMin= -347.345568492550     IErMin=12 ErrMin= 3.94D-06
 ErrMax= 3.94D-06 EMaxC= 1.00D-01 BMatC= 2.38D-08 BMatP= 1.23D-07
 IDIUse=1 WtCom= 1.00D+00 WtEn= 0.00D+00
 Coeff-Com:  0.997D-04-0.204D-03-0.116D-02-0.231D-02-0.242D-02 0.874D-02
 Coeff-Com:  0.193D-01-0.187D-01-0.758D-01-0.183D+00 0.135D+00 0.112D+01
 Coeff:      0.997D-04-0.204D-03-0.116D-02-0.231D-02-0.242D-02 0.874D-02
 Coeff:      0.193D-01-0.187D-01-0.758D-01-0.183D+00 0.135D+00 0.112D+01
 Gap=     0.282 Goal=   None    Shift=    0.000
 Gap=     0.187 Goal=   None    Shift=    0.000
 RMSDP=1.28D-06 MaxDP=5.11D-05 DE=-1.49D-07 OVMax= 3.49D-04

 Cycle  13  Pass 1  IDiag  1:
 RMSU=  3.05D-07    CP:  9.20D-01  9.52D-01  8.58D-01  8.54D-01  1.74D+00
                    CP:  1.64D+00  1.48D+00  1.44D+00  1.60D+00  1.75D+00
                    CP:  2.10D+00  1.63D+00
 E= -347.345568543975     Delta-E=       -0.000000051425 Rises=F Damp=F
 DIIS: error= 2.43D-06 at cycle  13 NSaved=  13.
 NSaved=13 IEnMin=13 EnMin= -347.345568543975     IErMin=13 ErrMin= 2.43D-06
 ErrMax= 2.43D-06 EMaxC= 1.00D-01 BMatC= 8.53D-09 BMatP= 2.38D-08
 IDIUse=1 WtCom= 1.00D+00 WtEn= 0.00D+00
 Coeff-Com: -0.590D-04 0.142D-03 0.284D-03 0.413D-03-0.127D-02-0.236D-02
 Coeff-Com:  0.993D-03 0.229D-01 0.444D-01-0.164D+00-0.200D+00 0.297D+00
 Coeff-Com:  0.100D+01
 Coeff:     -0.590D-04 0.142D-03 0.284D-03 0.413D-03-0.127D-02-0.236D-02
 Coeff:      0.993D-03 0.229D-01 0.444D-01-0.164D+00-0.200D+00 0.297D+00
 Coeff:      0.100D+01
 Gap=     0.282 Goal=   None    Shift=    0.000
 Gap=     0.187 Goal=   None    Shift=    0.000
 RMSDP=7.62D-07 MaxDP=2.93D-05 DE=-5.14D-08 OVMax= 2.14D-04

 Cycle  14  Pass 1  IDiag  1:
 RMSU=  1.46D-07    CP:  9.20D-01  9.52D-01  8.58D-01  8.54D-01  1.74D+00
                    CP:  1.65D+00  1.48D+00  1.45D+00  1.62D+00  1.82D+00
                    CP:  2.41D+00  2.09D+00  1.45D+00
 E= -347.345568560322     Delta-E=       -0.000000016347 Rises=F Damp=F
 DIIS: error= 1.14D-06 at cycle  14 NSaved=  14.
 NSaved=14 IEnMin=14 EnMin= -347.345568560322     IErMin=14 ErrMin= 1.14D-06
 ErrMax= 1.14D-06 EMaxC= 1.00D-01 BMatC= 2.61D-09 BMatP= 8.53D-09
 IDIUse=1 WtCom= 1.00D+00 WtEn= 0.00D+00
 Coeff-Com: -0.545D-04 0.118D-03 0.576D-03 0.939D-03 0.531D-03-0.431D-02
 Coeff-Com: -0.771D-02 0.139D-01 0.465D-01 0.117D-01-0.107D+00-0.332D+00
 Coeff-Com:  0.278D+00 0.110D+01
 Coeff:     -0.545D-04 0.118D-03 0.576D-03 0.939D-03 0.531D-03-0.431D-02
 Coeff:     -0.771D-02 0.139D-01 0.465D-01 0.117D-01-0.107D+00-0.332D+00
 Coeff:      0.278D+00 0.110D+01
 Gap=     0.282 Goal=   None    Shift=    0.000
 Gap=     0.187 Goal=   None    Shift=    0.000
 RMSDP=5.10D-07 MaxDP=2.10D-05 DE=-1.63D-08 OVMax= 1.58D-04

 Cycle  15  Pass 1  IDiag  1:
 RMSU=  7.02D-08    CP:  9.20D-01  9.52D-01  8.58D-01  8.54D-01  1.74D+00
                    CP:  1.65D+00  1.49D+00  1.45D+00  1.64D+00  1.87D+00
                    CP:  2.60D+00  2.39D+00  1.87D+00  1.58D+00
 E= -347.345568565997     Delta-E=       -0.000000005675 Rises=F Damp=F
 DIIS: error= 6.59D-07 at cycle  15 NSaved=  15.
 NSaved=15 IEnMin=15 EnMin= -347.345568565997     IErMin=15 ErrMin= 6.59D-07
 ErrMax= 6.59D-07 EMaxC= 1.00D-01 BMatC= 4.34D-10 BMatP= 2.61D-09
 IDIUse=1 WtCom= 1.00D+00 WtEn= 0.00D+00
 Coeff-Com:  0.141D-04-0.314D-04-0.344D-04-0.714D-04 0.273D-03 0.407D-03
 Coeff-Com: -0.445D-03-0.403D-02-0.955D-02 0.365D-01 0.445D-01-0.757D-01
 Coeff-Com: -0.228D+00-0.111D-01 0.125D+01
 Coeff:      0.141D-04-0.314D-04-0.344D-04-0.714D-04 0.273D-03 0.407D-03
 Coeff:     -0.445D-03-0.403D-02-0.955D-02 0.365D-01 0.445D-01-0.757D-01
 Coeff:     -0.228D+00-0.111D-01 0.125D+01
 Gap=     0.282 Goal=   None    Shift=    0.000
 Gap=     0.187 Goal=   None    Shift=    0.000
 RMSDP=2.28D-07 MaxDP=1.02D-05 DE=-5.67D-09 OVMax= 7.67D-05

 Cycle  16  Pass 1  IDiag  1:
 RMSU=  3.28D-08    CP:  9.20D-01  9.52D-01  8.58D-01  8.54D-01  1.74D+00
                    CP:  1.65D+00  1.49D+00  1.45D+00  1.65D+00  1.89D+00
                    CP:  2.67D+00  2.48D+00  2.04D+00  1.99D+00  1.62D+00
 E= -347.345568567056     Delta-E=       -0.000000001059 Rises=F Damp=F
 DIIS: error= 2.62D-07 at cycle  16 NSaved=  16.
 NSaved=16 IEnMin=16 EnMin= -347.345568567056     IErMin=16 ErrMin= 2.62D-07
 ErrMax= 2.62D-07 EMaxC= 1.00D-01 BMatC= 9.17D-11 BMatP= 4.34D-10
 IDIUse=1 WtCom= 1.00D+00 WtEn= 0.00D+00
 Coeff-Com:  0.103D-04-0.232D-04-0.108D-03-0.152D-03-0.735D-04 0.773D-03
 Coeff-Com:  0.144D-02-0.269D-02-0.102D-01 0.260D-02 0.215D-01 0.625D-01
 Coeff-Com: -0.659D-01-0.234D+00 0.944D-01 0.113D+01
 Coeff:      0.103D-04-0.232D-04-0.108D-03-0.152D-03-0.735D-04 0.773D-03
 Coeff:      0.144D-02-0.269D-02-0.102D-01 0.260D-02 0.215D-01 0.625D-01
 Coeff:     -0.659D-01-0.234D+00 0.944D-01 0.113D+01
 Gap=     0.282 Goal=   None    Shift=    0.000
 Gap=     0.187 Goal=   None    Shift=    0.000
 RMSDP=7.71D-08 MaxDP=3.60D-06 DE=-1.06D-09 OVMax= 2.61D-05

 Cycle  17  Pass 1  IDiag  1:
 RMSU=  1.51D-08    CP:  9.20D-01  9.52D-01  8.58D-01  8.54D-01  1.74D+00
                    CP:  1.65D+00  1.49D+00  1.45D+00  1.65D+00  1.90D+00
                    CP:  2.69D+00  2.51D+00  2.08D+00  2.14D+00  1.92D+00
                    CP:  1.51D+00
 E= -347.345568567217     Delta-E=       -0.000000000161 Rises=F Damp=F
 DIIS: error= 9.35D-08 at cycle  17 NSaved=  17.
 NSaved=17 IEnMin=17 EnMin= -347.345568567217     IErMin=17 ErrMin= 9.35D-08
 ErrMax= 9.35D-08 EMaxC= 1.00D-01 BMatC= 2.24D-11 BMatP= 9.17D-11
 IDIUse=1 WtCom= 1.00D+00 WtEn= 0.00D+00
 Coeff-Com: -0.600D-06 0.991D-06-0.224D-04-0.190D-04-0.709D-04 0.113D-03
 Coeff-Com:  0.454D-03 0.161D-03-0.122D-02-0.502D-02-0.407D-02 0.308D-01
 Coeff-Com:  0.302D-01-0.643D-01-0.219D+00 0.290D+00 0.942D+00
 Coeff:     -0.600D-06 0.991D-06-0.224D-04-0.190D-04-0.709D-04 0.113D-03
 Coeff:      0.454D-03 0.161D-03-0.122D-02-0.502D-02-0.407D-02 0.308D-01
 Coeff:      0.302D-01-0.643D-01-0.219D+00 0.290D+00 0.942D+00
 Gap=     0.282 Goal=   None    Shift=    0.000
 Gap=     0.187 Goal=   None    Shift=    0.000
 RMSDP=2.95D-08 MaxDP=1.30D-06 DE=-1.61D-10 OVMax= 9.05D-06

 Cycle  18  Pass 1  IDiag  1:
 RMSU=  7.61D-09    CP:  9.20D-01  9.52D-01  8.58D-01  8.54D-01  1.74D+00
                    CP:  1.65D+00  1.49D+00  1.45D+00  1.65D+00  1.90D+00
                    CP:  2.69D+00  2.52D+00  2.09D+00  2.17D+00  2.03D+00
                    CP:  1.79D+00  1.45D+00
 E= -347.345568567246     Delta-E=       -0.000000000029 Rises=F Damp=F
 DIIS: error= 5.64D-08 at cycle  18 NSaved=  18.
 NSaved=18 IEnMin=18 EnMin= -347.345568567246     IErMin=18 ErrMin= 5.64D-08
 ErrMax= 5.64D-08 EMaxC= 1.00D-01 BMatC= 4.22D-12 BMatP= 2.24D-11
 IDIUse=1 WtCom= 1.00D+00 WtEn= 0.00D+00
 Coeff-Com: -0.178D-05 0.396D-05 0.134D-04 0.212D-04 0.131D-05-0.100D-03
 Coeff-Com: -0.175D-03 0.537D-03 0.125D-02-0.619D-03-0.427D-02-0.792D-02
 Coeff-Com:  0.174D-01 0.296D-01-0.375D-01-0.187D+00 0.119D+00 0.107D+01
 Coeff:     -0.178D-05 0.396D-05 0.134D-04 0.212D-04 0.131D-05-0.100D-03
 Coeff:     -0.175D-03 0.537D-03 0.125D-02-0.619D-03-0.427D-02-0.792D-02
 Coeff:      0.174D-01 0.296D-01-0.375D-01-0.187D+00 0.119D+00 0.107D+01
 Gap=     0.282 Goal=   None    Shift=    0.000
 Gap=     0.187 Goal=   None    Shift=    0.000
 RMSDP=1.50D-08 MaxDP=7.60D-07 DE=-2.86D-11 OVMax= 3.99D-06

 Cycle  19  Pass 1  IDiag  1:
 RMSU=  3.85D-09    CP:  9.20D-01  9.52D-01  8.58D-01  8.54D-01  1.74D+00
                    CP:  1.65D+00  1.49D+00  1.45D+00  1.65D+00  1.90D+00
                    CP:  2.69D+00  2.52D+00  2.10D+00  2.18D+00  2.06D+00
                    CP:  1.92D+00  1.78D+00  1.47D+00
 E= -347.345568567255     Delta-E=       -0.000000000009 Rises=F Damp=F
 DIIS: error= 3.86D-08 at cycle  19 NSaved=  19.
 NSaved=19 IEnMin=19 EnMin= -347.345568567255     IErMin=19 ErrMin= 3.86D-08
 ErrMax= 3.86D-08 EMaxC= 1.00D-01 BMatC= 9.22D-13 BMatP= 4.22D-12
 IDIUse=1 WtCom= 1.00D+00 WtEn= 0.00D+00
 Coeff-Com:  0.334D-06-0.588D-06 0.252D-05 0.105D-05 0.802D-05-0.113D-04
 Coeff-Com: -0.745D-04 0.939D-05 0.899D-04 0.124D-02 0.861D-03-0.732D-02
 Coeff-Com: -0.517D-02 0.119D-01 0.512D-01-0.758D-01-0.207D+00 0.959D-01
 Coeff-Com:  0.113D+01
 Coeff:      0.334D-06-0.588D-06 0.252D-05 0.105D-05 0.802D-05-0.113D-04
 Coeff:     -0.745D-04 0.939D-05 0.899D-04 0.124D-02 0.861D-03-0.732D-02
 Coeff:     -0.517D-02 0.119D-01 0.512D-01-0.758D-01-0.207D+00 0.959D-01
 Coeff:      0.113D+01
 Gap=     0.282 Goal=   None    Shift=    0.000
 Gap=     0.187 Goal=   None    Shift=    0.000
 RMSDP=7.95D-09 MaxDP=4.43D-07 DE=-9.21D-12 OVMax= 1.94D-06

 SCF Done:  E(UM062X) =  -347.345568567     A.U. after   19 cycles
             Convg  =    0.7946D-08             -V/T =  2.0050
 <Sx>= 0.0000 <Sy>= 0.0000 <Sz>= 0.5000 <S**2>= 0.7738 S= 0.5118
 <L.S>= 0.000000000000E+00
 KE= 3.456108273635D+02 PE=-1.403210049898D+03 EE= 4.144568667564D+02
 Annihilation of the first spin contaminant:
 S**2 before annihilation     0.7738,   after     0.7503
 Leave Link  502 at Wed Jun 13 10:04:26 2018, MaxMem=  671088640 cpu:    3727.8
 (Enter /shared/apps/gaussian/G09_LINUX_LINDA/g09/l801.exe)
 Range of M.O.s used for correlation:     1   337
 NBasis=   337 NAE=    29 NBE=    28 NFC=     0 NFV=     0
 NROrb=    337 NOA=    29 NOB=    28 NVA=   308 NVB=   309

 **** Warning!!: The largest alpha MO coefficient is  0.85797138D+02


 **** Warning!!: The largest beta MO coefficient is  0.88363422D+02

 Leave Link  801 at Wed Jun 13 10:04:26 2018, MaxMem=  671088640 cpu:       0.4
 (Enter /shared/apps/gaussian/G09_LINUX_LINDA/g09/l1101.exe)
 Using compressed storage, NAtomX=    18.
 Will process  19 centers per pass.
 Leave Link 1101 at Wed Jun 13 10:04:31 2018, MaxMem=  671088640 cpu:      45.1
 (Enter /shared/apps/gaussian/G09_LINUX_LINDA/g09/l1102.exe)
 Symmetrizing basis deriv contribution to polar:
 IMax=3 JMax=2 DiffMx= 0.00D+00
 Leave Link 1102 at Wed Jun 13 10:04:31 2018, MaxMem=  671088640 cpu:       1.9
 (Enter /shared/apps/gaussian/G09_LINUX_LINDA/g09/l1110.exe)
 Forming Gx(P) for the SCF density, NAtomX=    18.
 Integral derivatives from FoFDir/FoFCou, PRISM(SPDF).
 Do as many integral derivatives as possible in FoFDir.
 G2DrvN: MDV=     671088392.
 G2DrvN: will do    19 centers at a time, making    1 passes doing MaxLOS=3.
 Calling FoFCou, ICntrl=  3107 FMM=F I1Cent=   0 AccDes= 0.00D+00.
 FoFCou: FMM=F IPFlag=           0 FMFlag=      100000 FMFlg1=           0
         NFxFlg=           0 DoJE=F BraDBF=F KetDBF=F FulRan=T
         Omega=  0.000000  0.000000  1.000000  0.000000  0.000000 ICntrl=    3107 IOpCl=  1
         NMat0=    1 NMatS0=    1 NMatT0=    0 NMatD0=    1 NMtDS0=    0 NMtDT0=    0
         I1Cent=           0 NGrid=           0.
 Symmetry not used in FoFCou.
 FoFDir/FoFCou used for L=0 through L=3.
 End of G2Drv Frequency-dependent properties file   721 does not exist.
 End of G2Drv Frequency-dependent properties file   722 does not exist.
 Leave Link 1110 at Wed Jun 13 10:10:27 2018, MaxMem=  671088640 cpu:    3549.2
 (Enter /shared/apps/gaussian/G09_LINUX_LINDA/g09/l1002.exe)
 Minotr:  UHF open shell wavefunction.
          IDoAtm=111111111111111111
          Direct CPHF calculation.
          Differentiating once with respect to nuclear coordinates.
          Requested convergence is 1.0D-06 RMS, and 1.0D-05 maximum.
          Secondary convergence is 1.0D-12 RMS, and 1.0D-12 maximum.
          NewPWx=T KeepS1=F KeepF1=F KeepIn=T MapXYZ=F SortEE=F KeepMc=T.
          MDV=     671088456 using IRadAn=       2.
 Generate precomputed XC quadrature information.
          Solving linear equations simultaneously, MaxMat=       0.
 Integrals replicated using symmetry in FoFDir.
 MinBra= 0 MaxBra= 3 Meth= 1.
 IRaf=       0 NMat=  57 IRICut=     142 DoRegI=T DoRafI=T ISym2E= 2 JSym2E=2.
          There are    57 degrees of freedom in the 1st order CPHF.  IDoFFX=5.
     51 vectors produced by pass  0 Test12= 3.08D-10 1.75D-07 XBig12= 2.15D-01 2.25D-01.
 AX will form    51 AO Fock derivatives at one time.
     51 vectors produced by pass  1 Test12= 3.08D-10 1.75D-07 XBig12= 3.38D-02 4.75D-02.
     51 vectors produced by pass  2 Test12= 3.08D-10 1.75D-07 XBig12= 2.12D-03 7.50D-03.
     51 vectors produced by pass  3 Test12= 3.08D-10 1.75D-07 XBig12= 3.77D-05 8.93D-04.
     51 vectors produced by pass  4 Test12= 3.08D-10 1.75D-07 XBig12= 4.88D-07 8.65D-05.
     29 vectors produced by pass  5 Test12= 3.08D-10 1.75D-07 XBig12= 4.60D-09 8.21D-06.
      6 vectors produced by pass  6 Test12= 3.08D-10 1.75D-07 XBig12= 4.37D-11 6.82D-07.
 Inverted reduced A of dimension   290 with in-core refinement.
 End of Minotr Frequency-dependent properties file   721 does not exist.
 End of Minotr Frequency-dependent properties file   722 does not exist.
 Leave Link 1002 at Wed Jun 13 10:25:25 2018, MaxMem=  671088640 cpu:    8956.1
 (Enter /shared/apps/gaussian/G09_LINUX_LINDA/g09/l601.exe)
 Copying SCF densities to generalized density rwf, IOpCl= 1 IROHF=0.

 **********************************************************************

            Population analysis using the SCF density.

 **********************************************************************

 Orbital symmetries:
 Alpha Orbitals:
       Occupied  (A) (A) (A) (A) (A) (A) (A) (A) (A) (A) (A) (A)
                 (A) (A) (A) (A) (A) (A) (A) (A) (A) (A) (A) (A)
                 (A) (A) (A) (A) (A)
       Virtual   (A) (A) (A) (A) (A) (A) (A) (A) (A) (A) (A) (A)
                 (A) (A) (A) (A) (A) (A) (A) (A) (A) (A) (A) (A)
                 (A) (A) (A) (A) (A) (A) (A) (A) (A) (A) (A) (A)
                 (A) (A) (A) (A) (A) (A) (A) (A) (A) (A) (A) (A)
                 (A) (A) (A) (A) (A) (A) (A) (A) (A) (A) (A) (A)
                 (A) (A) (A) (A) (A) (A) (A) (A) (A) (A) (A) (A)
                 (A) (A) (A) (A) (A) (A) (A) (A) (A) (A) (A) (A)
                 (A) (A) (A) (A) (A) (A) (A) (A) (A) (A) (A) (A)
                 (A) (A) (A) (A) (A) (A) (A) (A) (A) (A) (A) (A)
                 (A) (A) (A) (A) (A) (A) (A) (A) (A) (A) (A) (A)
                 (A) (A) (A) (A) (A) (A) (A) (A) (A) (A) (A) (A)
                 (A) (A) (A) (A) (A) (A) (A) (A) (A) (A) (A) (A)
                 (A) (A) (A) (A) (A) (A) (A) (A) (A) (A) (A) (A)
                 (A) (A) (A) (A) (A) (A) (A) (A) (A) (A) (A) (A)
                 (A) (A) (A) (A) (A) (A) (A) (A) (A) (A) (A) (A)
                 (A) (A) (A) (A) (A) (A) (A) (A) (A) (A) (A) (A)
                 (A) (A) (A) (A) (A) (A) (A) (A) (A) (A) (A) (A)
                 (A) (A) (A) (A) (A) (A) (A) (A) (A) (A) (A) (A)
                 (A) (A) (A) (A) (A) (A) (A) (A) (A) (A) (A) (A)
                 (A) (A) (A) (A) (A) (A) (A) (A) (A) (A) (A) (A)
                 (A) (A) (A) (A) (A) (A) (A) (A) (A) (A) (A) (A)
                 (A) (A) (A) (A) (A) (A) (A) (A) (A) (A) (A) (A)
                 (A) (A) (A) (A) (A) (A) (A) (A) (A) (A) (A) (A)
                 (A) (A) (A) (A) (A) (A) (A) (A) (A) (A) (A) (A)
                 (A) (A) (A) (A) (A) (A) (A) (A) (A) (A) (A) (A)
                 (A) (A) (A) (A) (A) (A) (A) (A)
 Beta  Orbitals:
       Occupied  (A) (A) (A) (A) (A) (A) (A) (A) (A) (A) (A) (A)
                 (A) (A) (A) (A) (A) (A) (A) (A) (A) (A) (A) (A)
                 (A) (A) (A) (A)
       Virtual   (A) (A) (A) (A) (A) (A) (A) (A) (A) (A) (A) (A)
                 (A) (A) (A) (A) (A) (A) (A) (A) (A) (A) (A) (A)
                 (A) (A) (A) (A) (A) (A) (A) (A) (A) (A) (A) (A)
                 (A) (A) (A) (A) (A) (A) (A) (A) (A) (A) (A) (A)
                 (A) (A) (A) (A) (A) (A) (A) (A) (A) (A) (A) (A)
                 (A) (A) (A) (A) (A) (A) (A) (A) (A) (A) (A) (A)
                 (A) (A) (A) (A) (A) (A) (A) (A) (A) (A) (A) (A)
                 (A) (A) (A) (A) (A) (A) (A) (A) (A) (A) (A) (A)
                 (A) (A) (A) (A) (A) (A) (A) (A) (A) (A) (A) (A)
                 (A) (A) (A) (A) (A) (A) (A) (A) (A) (A) (A) (A)
                 (A) (A) (A) (A) (A) (A) (A) (A) (A) (A) (A) (A)
                 (A) (A) (A) (A) (A) (A) (A) (A) (A) (A) (A) (A)
                 (A) (A) (A) (A) (A) (A) (A) (A) (A) (A) (A) (A)
                 (A) (A) (A) (A) (A) (A) (A) (A) (A) (A) (A) (A)
                 (A) (A) (A) (A) (A) (A) (A) (A) (A) (A) (A) (A)
                 (A) (A) (A) (A) (A) (A) (A) (A) (A) (A) (A) (A)
                 (A) (A) (A) (A) (A) (A) (A) (A) (A) (A) (A) (A)
                 (A) (A) (A) (A) (A) (A) (A) (A) (A) (A) (A) (A)
                 (A) (A) (A) (A) (A) (A) (A) (A) (A) (A) (A) (A)
                 (A) (A) (A) (A) (A) (A) (A) (A) (A) (A) (A) (A)
                 (A) (A) (A) (A) (A) (A) (A) (A) (A) (A) (A) (A)
                 (A) (A) (A) (A) (A) (A) (A) (A) (A) (A) (A) (A)
                 (A) (A) (A) (A) (A) (A) (A) (A) (A) (A) (A) (A)
                 (A) (A) (A) (A) (A) (A) (A) (A) (A) (A) (A) (A)
                 (A) (A) (A) (A) (A) (A) (A) (A) (A) (A) (A) (A)
                 (A) (A) (A) (A) (A) (A) (A) (A) (A)
 The electronic state is 2-A.
 Alpha  occ. eigenvalues --  -19.69097 -19.67677 -10.56506 -10.55795 -10.54550
 Alpha  occ. eigenvalues --  -10.54297 -10.54237  -1.24099  -0.97420  -0.93258
 Alpha  occ. eigenvalues --   -0.83739  -0.79465  -0.72544  -0.61170  -0.59621
 Alpha  occ. eigenvalues --   -0.55283  -0.54356  -0.51969  -0.51078  -0.50897
 Alpha  occ. eigenvalues --   -0.47288  -0.46648  -0.44498  -0.43142  -0.41629
 Alpha  occ. eigenvalues --   -0.39349  -0.36739  -0.34168  -0.27529
 Alpha virt. eigenvalues --    0.00645   0.01920   0.02498   0.03020   0.03635
 Alpha virt. eigenvalues --    0.04887   0.05126   0.05831   0.06574   0.07846
 Alpha virt. eigenvalues --    0.08265   0.09155   0.09768   0.11472   0.11845
 Alpha virt. eigenvalues --    0.11888   0.13475   0.13749   0.14938   0.15719
 Alpha virt. eigenvalues --    0.17275   0.18585   0.19643   0.20004   0.20357
 Alpha virt. eigenvalues --    0.20703   0.21413   0.22061   0.22473   0.22637
 Alpha virt. eigenvalues --    0.23431   0.23812   0.26064   0.26294   0.27922
 Alpha virt. eigenvalues --    0.28455   0.28956   0.29486   0.30589   0.31692
 Alpha virt. eigenvalues --    0.32874   0.36922   0.37168   0.38070   0.40683
 Alpha virt. eigenvalues --    0.42106   0.43972   0.45209   0.46384   0.48391
 Alpha virt. eigenvalues --    0.49301   0.49943   0.50493   0.52501   0.54567
 Alpha virt. eigenvalues --    0.55147   0.55327   0.56256   0.57945   0.58513
 Alpha virt. eigenvalues --    0.59430   0.60432   0.60472   0.62535   0.63704
 Alpha virt. eigenvalues --    0.64298   0.65544   0.66383   0.67842   0.68302
 Alpha virt. eigenvalues --    0.70112   0.71332   0.72926   0.73631   0.77203
 Alpha virt. eigenvalues --    0.79647   0.80230   0.80732   0.82200   0.84273
 Alpha virt. eigenvalues --    0.86987   0.87984   0.89682   0.90117   0.92498
 Alpha virt. eigenvalues --    0.94190   0.95599   0.96396   0.98333   1.00286
 Alpha virt. eigenvalues --    1.02579   1.03422   1.05152   1.06265   1.07745
 Alpha virt. eigenvalues --    1.09657   1.11579   1.11862   1.12344   1.13166
 Alpha virt. eigenvalues --    1.16128   1.16480   1.17458   1.18557   1.19385
 Alpha virt. eigenvalues --    1.21476   1.21987   1.24219   1.27305   1.28421
 Alpha virt. eigenvalues --    1.29526   1.30612   1.32246   1.33620   1.34704
 Alpha virt. eigenvalues --    1.35541   1.36535   1.37720   1.38884   1.40084
 Alpha virt. eigenvalues --    1.40929   1.41604   1.45856   1.46128   1.46651
 Alpha virt. eigenvalues --    1.47263   1.48855   1.50512   1.53423   1.55511
 Alpha virt. eigenvalues --    1.56477   1.57609   1.59281   1.59500   1.60712
 Alpha virt. eigenvalues --    1.62118   1.63237   1.65134   1.67180   1.68945
 Alpha virt. eigenvalues --    1.70346   1.73293   1.75277   1.89632   1.92786
 Alpha virt. eigenvalues --    1.97162   2.01104   2.16840   2.21953   2.27837
 Alpha virt. eigenvalues --    2.28278   2.41592   2.44415   2.49096   2.51006
 Alpha virt. eigenvalues --    2.55278   2.56835   2.58930   2.59820   2.65793
 Alpha virt. eigenvalues --    2.68743   2.69118   2.72876   2.79129   2.79804
 Alpha virt. eigenvalues --    2.81497   2.82952   2.85187   2.89226   2.89813
 Alpha virt. eigenvalues --    2.91453   2.92150   2.93882   2.96056   2.97587
 Alpha virt. eigenvalues --    2.98373   2.99819   3.02120   3.03045   3.05921
 Alpha virt. eigenvalues --    3.08633   3.12098   3.15085   3.16160   3.17592
 Alpha virt. eigenvalues --    3.18142   3.19622   3.21463   3.22397   3.23359
 Alpha virt. eigenvalues --    3.24608   3.28542   3.29288   3.32719   3.34866
 Alpha virt. eigenvalues --    3.36012   3.40891   3.43265   3.43436   3.45614
 Alpha virt. eigenvalues --    3.47311   3.49161   3.50240   3.51085   3.56124
 Alpha virt. eigenvalues --    3.58859   3.61456   3.61900   3.63483   3.65138
 Alpha virt. eigenvalues --    3.67335   3.69515   3.70529   3.72047   3.74931
 Alpha virt. eigenvalues --    3.78362   3.81624   3.82243   3.82934   3.84412
 Alpha virt. eigenvalues --    3.89162   3.90646   3.91456   3.94842   3.96821
 Alpha virt. eigenvalues --    3.99198   3.99478   4.02457   4.05580   4.07390
 Alpha virt. eigenvalues --    4.08803   4.10603   4.12966   4.13749   4.16399
 Alpha virt. eigenvalues --    4.18748   4.19702   4.21359   4.24283   4.26579
 Alpha virt. eigenvalues --    4.28680   4.30803   4.34039   4.35503   4.37265
 Alpha virt. eigenvalues --    4.39764   4.40752   4.42677   4.46505   4.47977
 Alpha virt. eigenvalues --    4.49422   4.52208   4.56807   4.60224   4.62105
 Alpha virt. eigenvalues --    4.62529   4.64132   4.66019   4.67229   4.74441
 Alpha virt. eigenvalues --    4.79099   4.79683   4.91905   4.94066   4.95809
 Alpha virt. eigenvalues --    5.06184   5.08009   5.08832   5.10391   5.18596
 Alpha virt. eigenvalues --    5.20499   5.22274   5.25833   5.35107   5.36965
 Alpha virt. eigenvalues --    5.39028   5.48595   5.48624   5.48981   5.51464
 Alpha virt. eigenvalues --    5.52631   5.53299   5.55508   5.57275   5.72324
 Alpha virt. eigenvalues --    5.81021   5.85047   6.02488   6.09146   6.75226
 Alpha virt. eigenvalues --    6.77414   6.81414   6.88416   6.93242   6.97901
 Alpha virt. eigenvalues --    7.14854   7.25458   7.44252   7.54375   7.66037
 Alpha virt. eigenvalues --    7.94570  24.02968  24.33825  24.37270  24.39632
 Alpha virt. eigenvalues --   24.84810  49.97439  50.00036
  Beta  occ. eigenvalues --  -19.68839 -19.66799 -10.56369 -10.55433 -10.54564
  Beta  occ. eigenvalues --  -10.54313 -10.54300  -1.22412  -0.94857  -0.92711
  Beta  occ. eigenvalues --   -0.82976  -0.79348  -0.71624  -0.60116  -0.59120
  Beta  occ. eigenvalues --   -0.53946  -0.53123  -0.51450  -0.50493  -0.47549
  Beta  occ. eigenvalues --   -0.46697  -0.46183  -0.44111  -0.42686  -0.40802
  Beta  occ. eigenvalues --   -0.36784  -0.35258  -0.29210
  Beta virt. eigenvalues --   -0.10530   0.00687   0.02480   0.02686   0.03010
  Beta virt. eigenvalues --    0.03950   0.04927   0.05150   0.05938   0.06656
  Beta virt. eigenvalues --    0.07957   0.08336   0.09446   0.09846   0.11815
  Beta virt. eigenvalues --    0.11999   0.12165   0.13539   0.13988   0.15067
  Beta virt. eigenvalues --    0.15897   0.17526   0.18686   0.19697   0.20109
  Beta virt. eigenvalues --    0.20473   0.20988   0.21530   0.22187   0.22578
  Beta virt. eigenvalues --    0.22865   0.23647   0.24065   0.26193   0.26629
  Beta virt. eigenvalues --    0.27969   0.28908   0.29405   0.29736   0.31246
  Beta virt. eigenvalues --    0.32268   0.33303   0.36989   0.37341   0.38265
  Beta virt. eigenvalues --    0.40720   0.42289   0.43995   0.45401   0.46468
  Beta virt. eigenvalues --    0.48532   0.49500   0.50049   0.50909   0.52745
  Beta virt. eigenvalues --    0.54801   0.55307   0.55610   0.56475   0.58221
  Beta virt. eigenvalues --    0.58726   0.59566   0.60428   0.60536   0.62781
  Beta virt. eigenvalues --    0.63934   0.64548   0.65925   0.66599   0.68026
  Beta virt. eigenvalues --    0.68471   0.70230   0.71442   0.73069   0.73739
  Beta virt. eigenvalues --    0.77396   0.79816   0.80538   0.80852   0.82236
  Beta virt. eigenvalues --    0.84352   0.86988   0.88018   0.89752   0.90256
  Beta virt. eigenvalues --    0.92510   0.94279   0.95870   0.96490   0.98804
  Beta virt. eigenvalues --    1.00503   1.02768   1.03508   1.05300   1.06679
  Beta virt. eigenvalues --    1.08101   1.09952   1.11696   1.12177   1.12607
  Beta virt. eigenvalues --    1.13379   1.16392   1.16632   1.17830   1.19042
  Beta virt. eigenvalues --    1.19636   1.21735   1.22212   1.24419   1.27446
  Beta virt. eigenvalues --    1.28638   1.29832   1.30950   1.32527   1.33918
  Beta virt. eigenvalues --    1.35129   1.35644   1.36860   1.37990   1.39241
  Beta virt. eigenvalues --    1.40306   1.41108   1.41837   1.46041   1.46322
  Beta virt. eigenvalues --    1.46713   1.47437   1.49212   1.50627   1.53888
  Beta virt. eigenvalues --    1.55967   1.56728   1.57905   1.59300   1.59827
  Beta virt. eigenvalues --    1.60970   1.62920   1.63493   1.65251   1.67501
  Beta virt. eigenvalues --    1.69362   1.71021   1.73739   1.75838   1.90189
  Beta virt. eigenvalues --    1.93465   1.97739   2.01464   2.17689   2.22122
  Beta virt. eigenvalues --    2.28105   2.28534   2.42181   2.44941   2.49499
  Beta virt. eigenvalues --    2.51133   2.55920   2.57016   2.59280   2.60048
  Beta virt. eigenvalues --    2.65993   2.68815   2.69717   2.73519   2.78519
  Beta virt. eigenvalues --    2.79976   2.81818   2.83744   2.86291   2.89665
  Beta virt. eigenvalues --    2.90607   2.91311   2.92120   2.94293   2.96849
  Beta virt. eigenvalues --    2.97878   2.98845   3.00836   3.03009   3.04823
  Beta virt. eigenvalues --    3.07419   3.09135   3.12651   3.15598   3.16603
  Beta virt. eigenvalues --    3.18087   3.18703   3.20468   3.21907   3.22837
  Beta virt. eigenvalues --    3.23835   3.25115   3.29165   3.30532   3.33224
  Beta virt. eigenvalues --    3.35891   3.36583   3.40721   3.43809   3.44556
  Beta virt. eigenvalues --    3.47525   3.48781   3.49552   3.51240   3.52498
  Beta virt. eigenvalues --    3.57539   3.61063   3.62509   3.63416   3.64743
  Beta virt. eigenvalues --    3.67345   3.67967   3.70032   3.72038   3.73160
  Beta virt. eigenvalues --    3.75118   3.78984   3.82253   3.83109   3.83561
  Beta virt. eigenvalues --    3.84843   3.89449   3.91465   3.91797   3.95394
  Beta virt. eigenvalues --    3.97612   3.99698   3.99988   4.02826   4.05724
  Beta virt. eigenvalues --    4.07621   4.09039   4.10846   4.13258   4.14318
  Beta virt. eigenvalues --    4.17235   4.19171   4.20322   4.21884   4.24674
  Beta virt. eigenvalues --    4.27422   4.29267   4.31426   4.34462   4.35725
  Beta virt. eigenvalues --    4.37436   4.40768   4.41008   4.43470   4.46608
  Beta virt. eigenvalues --    4.49163   4.50190   4.52743   4.57582   4.60425
  Beta virt. eigenvalues --    4.62713   4.63232   4.64766   4.66410   4.68396
  Beta virt. eigenvalues --    4.75796   4.80121   4.80169   4.93288   4.94754
  Beta virt. eigenvalues --    4.96454   5.06676   5.09048   5.10047   5.11471
  Beta virt. eigenvalues --    5.19275   5.21760   5.23039   5.28000   5.35626
  Beta virt. eigenvalues --    5.38185   5.39072   5.48573   5.48971   5.49915
  Beta virt. eigenvalues --    5.52489   5.52961   5.54272   5.55802   5.57556
  Beta virt. eigenvalues --    5.72856   5.81802   5.85696   6.02756   6.09431
  Beta virt. eigenvalues --    6.75758   6.80509   6.84680   6.88494   6.95694
  Beta virt. eigenvalues --    6.98648   7.16998   7.25854   7.44362   7.56988
  Beta virt. eigenvalues --    7.67919   7.94511  24.03189  24.34436  24.37315
  Beta virt. eigenvalues --   24.39849  24.85163  49.97320  49.99385
          Condensed to atoms (all electrons):
              1          2          3          4          5          6
     1  O    8.234392   0.089037  -0.012019   0.001993  -0.015751   0.010952
     2  O    0.089037   7.862063   0.001212   0.007901   0.014874  -0.011454
     3  C   -0.012019   0.001212   5.904545   0.023624  -0.171193  -0.190011
     4  C    0.001993   0.007901   0.023624   5.937210   0.203225   0.095545
     5  C   -0.015751   0.014874  -0.171193   0.203225   6.072055  -0.220803
     6  C    0.010952  -0.011454  -0.190011   0.095545  -0.220803   5.816455
     7  C    0.007786   0.004687   0.152854  -0.499130  -0.272785   0.074987
     8  H   -0.050201   0.238065   0.000215   0.000666  -0.000979   0.001179
     9  H   -0.000699   0.000048   0.349708  -0.010137   0.004020  -0.012891
    10  H    0.032806   0.005839   0.005355  -0.056250   0.275676  -0.020542
    11  H    0.001809   0.000078  -0.033366   0.031132   0.366696   0.007717
    12  H    0.000733  -0.000469  -0.025123  -0.020152   0.380055   0.000562
    13  H   -0.001173  -0.000100  -0.026316  -0.033586   0.007872   0.412375
    14  H   -0.004770   0.001105  -0.009019  -0.007575   0.007701   0.365373
    15  H    0.000679  -0.000031   0.006761  -0.084344   0.000730   0.435403
    16  H    0.000034  -0.000003  -0.036710  -0.007479   0.002431   0.002495
    17  H    0.000002   0.000003  -0.005568  -0.079168   0.001600   0.026881
    18  H   -0.000028  -0.000006  -0.012182  -0.013752   0.003697  -0.009812
              7          8          9         10         11         12
     1  O    0.007786  -0.050201  -0.000699   0.032806   0.001809   0.000733
     2  O    0.004687   0.238065   0.000048   0.005839   0.000078  -0.000469
     3  C    0.152854   0.000215   0.349708   0.005355  -0.033366  -0.025123
     4  C   -0.499130   0.000666  -0.010137  -0.056250   0.031132  -0.020152
     5  C   -0.272785  -0.000979   0.004020   0.275676   0.366696   0.380055
     6  C    0.074987   0.001179  -0.012891  -0.020542   0.007717   0.000562
     7  C    5.918588  -0.001072   0.029958   0.000739   0.007487   0.011533
     8  H   -0.001072   0.555572  -0.000012   0.001617  -0.000070   0.000005
     9  H    0.029958  -0.000012   0.487815   0.003474  -0.010074   0.004113
    10  H    0.000739   0.001617   0.003474   0.440671  -0.016636  -0.016338
    11  H    0.007487  -0.000070  -0.010074  -0.016636   0.504147  -0.023704
    12  H    0.011533   0.000005   0.004113  -0.016338  -0.023704   0.519422
    13  H    0.003551   0.000019  -0.000079  -0.002074  -0.000096   0.002277
    14  H   -0.010291   0.000972  -0.000087   0.007308  -0.000013  -0.003282
    15  H    0.019827  -0.000046  -0.000087  -0.000044  -0.000004   0.000002
    16  H    0.402913  -0.000001  -0.000767  -0.000130  -0.000020   0.000182
    17  H    0.426638   0.000000   0.000267  -0.000004   0.000005  -0.000004
    18  H    0.393252  -0.000009  -0.001016   0.000267  -0.000002  -0.000104
             13         14         15         16         17         18
     1  O   -0.001173  -0.004770   0.000679   0.000034   0.000002  -0.000028
     2  O   -0.000100   0.001105  -0.000031  -0.000003   0.000003  -0.000006
     3  C   -0.026316  -0.009019   0.006761  -0.036710  -0.005568  -0.012182
     4  C   -0.033586  -0.007575  -0.084344  -0.007479  -0.079168  -0.013752
     5  C    0.007872   0.007701   0.000730   0.002431   0.001600   0.003697
     6  C    0.412375   0.365373   0.435403   0.002495   0.026881  -0.009812
     7  C    0.003551  -0.010291   0.019827   0.402913   0.426638   0.393252
     8  H    0.000019   0.000972  -0.000046  -0.000001   0.000000  -0.000009
     9  H   -0.000079  -0.000087  -0.000087  -0.000767   0.000267  -0.001016
    10  H   -0.002074   0.007308  -0.000044  -0.000130  -0.000004   0.000267
    11  H   -0.000096  -0.000013  -0.000004  -0.000020   0.000005  -0.000002
    12  H    0.002277  -0.003282   0.000002   0.000182  -0.000004  -0.000104
    13  H    0.524808  -0.031268  -0.025701   0.000026   0.000279  -0.000281
    14  H   -0.031268   0.522132  -0.026568  -0.000395   0.000309   0.000280
    15  H   -0.025701  -0.026568   0.531160   0.000415   0.000441   0.000591
    16  H    0.000026  -0.000395   0.000415   0.536039  -0.023497  -0.033852
    17  H    0.000279   0.000309   0.000441  -0.023497   0.540570  -0.023994
    18  H   -0.000281   0.000280   0.000591  -0.033852  -0.023994   0.536901
 Mulliken atomic charges:
              1
     1  O   -0.295583
     2  O   -0.212848
     3  C    0.077233
     4  C    0.510279
     5  C   -0.659120
     6  C   -0.784413
     7  C   -0.671523
     8  H    0.254081
     9  H    0.156447
    10  H    0.338267
    11  H    0.164913
    12  H    0.170291
    13  H    0.169464
    14  H    0.188088
    15  H    0.140815
    16  H    0.158319
    17  H    0.135241
    18  H    0.160049
 Sum of Mulliken atomic charges =   0.00000
 Mulliken charges with hydrogens summed into heavy atoms:
              1
     1  O    0.042685
     2  O    0.041233
     3  C    0.233680
     4  C    0.510279
     5  C   -0.323916
     6  C   -0.286046
     7  C   -0.217915
 Sum of Mulliken charges with hydrogens summed into heavy atoms =   0.00000
          Atomic-Atomic Spin Densities.
              1          2          3          4          5          6
     1  O    0.553151  -0.074984   0.016841   0.007174  -0.062770  -0.002050
     2  O   -0.074984   0.136270  -0.005620  -0.003366   0.014991  -0.000029
     3  C    0.016841  -0.005620  -0.152908   0.070407  -0.010694  -0.016846
     4  C    0.007174  -0.003366   0.070407   0.285919  -0.063239  -0.003116
     5  C   -0.062770   0.014991  -0.010694  -0.063239   0.541966  -0.016347
     6  C   -0.002050  -0.000029  -0.016846  -0.003116  -0.016347  -0.013144
     7  C   -0.005524   0.001240  -0.021862  -0.012144   0.006667   0.008430
     8  H    0.000138   0.000306   0.000027  -0.000168  -0.000163   0.000031
     9  H   -0.000502   0.000142   0.008583  -0.005729  -0.002663   0.000355
    10  H   -0.056413   0.018031  -0.023723   0.006229   0.089474   0.007436
    11  H    0.001261  -0.000332   0.000178   0.003388  -0.008361   0.000891
    12  H    0.003596  -0.000572   0.013138  -0.001497  -0.019540   0.000306
    13  H    0.001212  -0.000184   0.005278  -0.008531  -0.005698   0.005517
    14  H   -0.006289   0.001542  -0.005991  -0.008368   0.008643   0.004583
    15  H   -0.000147   0.000031   0.000067  -0.001292   0.000068   0.000352
    16  H    0.000055  -0.000011   0.001797  -0.012745  -0.000608   0.000101
    17  H    0.000001   0.000000  -0.000065   0.000214  -0.000012   0.000660
    18  H   -0.000167   0.000073  -0.001986  -0.005367   0.000826   0.001621
              7          8          9         10         11         12
     1  O   -0.005524   0.000138  -0.000502  -0.056413   0.001261   0.003596
     2  O    0.001240   0.000306   0.000142   0.018031  -0.000332  -0.000572
     3  C   -0.021862   0.000027   0.008583  -0.023723   0.000178   0.013138
     4  C   -0.012144  -0.000168  -0.005729   0.006229   0.003388  -0.001497
     5  C    0.006667  -0.000163  -0.002663   0.089474  -0.008361  -0.019540
     6  C    0.008430   0.000031   0.000355   0.007436   0.000891   0.000306
     7  C   -0.008363   0.000283   0.000024   0.002709  -0.000162   0.000046
     8  H    0.000283  -0.005214   0.000002   0.001013   0.000002  -0.000003
     9  H    0.000024   0.000002   0.011423   0.000054  -0.000082  -0.000649
    10  H    0.002709   0.001013   0.000054  -0.079667   0.002026  -0.003417
    11  H   -0.000162   0.000002  -0.000082   0.002026  -0.022171   0.004828
    12  H    0.000046  -0.000003  -0.000649  -0.003417   0.004828  -0.015655
    13  H    0.000308  -0.000010  -0.000102  -0.001163   0.000054   0.001528
    14  H    0.001310   0.000143   0.000116   0.003548  -0.000052  -0.000608
    15  H    0.001085   0.000004   0.000006   0.000091  -0.000002  -0.000039
    16  H    0.009214   0.000000  -0.000592  -0.000048   0.000010   0.000057
    17  H   -0.001001   0.000000  -0.000010  -0.000002   0.000000  -0.000001
    18  H    0.004349   0.000003   0.000459   0.000032  -0.000008  -0.000018
             13         14         15         16         17         18
     1  O    0.001212  -0.006289  -0.000147   0.000055   0.000001  -0.000167
     2  O   -0.000184   0.001542   0.000031  -0.000011   0.000000   0.000073
     3  C    0.005278  -0.005991   0.000067   0.001797  -0.000065  -0.001986
     4  C   -0.008531  -0.008368  -0.001292  -0.012745   0.000214  -0.005367
     5  C   -0.005698   0.008643   0.000068  -0.000608  -0.000012   0.000826
     6  C    0.005517   0.004583   0.000352   0.000101   0.000660   0.001621
     7  C    0.000308   0.001310   0.001085   0.009214  -0.001001   0.004349
     8  H   -0.000010   0.000143   0.000004   0.000000   0.000000   0.000003
     9  H   -0.000102   0.000116   0.000006  -0.000592  -0.000010   0.000459
    10  H   -0.001163   0.003548   0.000091  -0.000048  -0.000002   0.000032
    11  H    0.000054  -0.000052  -0.000002   0.000010   0.000000  -0.000008
    12  H    0.001528  -0.000608  -0.000039   0.000057  -0.000001  -0.000018
    13  H    0.016924  -0.004289  -0.000732   0.000246  -0.000014  -0.000097
    14  H   -0.004289   0.014909   0.000713  -0.000136  -0.000002   0.000213
    15  H   -0.000732   0.000713   0.000010  -0.000094   0.000027   0.000063
    16  H    0.000246  -0.000136  -0.000094   0.015341  -0.000188  -0.003246
    17  H   -0.000014  -0.000002   0.000027  -0.000188   0.000888  -0.000001
    18  H   -0.000097   0.000213   0.000063  -0.003246  -0.000001   0.012366
 Mulliken atomic spin densities:
              1
     1  O    0.374582
     2  O    0.087527
     3  C   -0.123379
     4  C    0.247766
     5  C    0.472540
     6  C   -0.021250
     7  C   -0.013392
     8  H   -0.003607
     9  H    0.010833
    10  H   -0.033790
    11  H   -0.018532
    12  H   -0.018500
    13  H    0.010247
    14  H    0.009986
    15  H    0.000211
    16  H    0.009151
    17  H    0.000495
    18  H    0.009112
 Sum of Mulliken atomic spin densities =   1.00000
 APT atomic charges:
              1
     1  O   -0.194474
     2  O   -0.371513
     3  C   -0.125897
     4  C    0.297527
     5  C   -1.225794
     6  C   -1.299947
     7  C   -1.595763
     8  H    0.391830
     9  H    0.505273
    10  H    0.247283
    11  H    0.531503
    12  H    0.414040
    13  H    0.393886
    14  H    0.217718
    15  H    0.515747
    16  H    0.514800
    17  H    0.464133
    18  H    0.319647
 Sum of APT charges=   0.00000
 APT Atomic charges with hydrogens summed into heavy atoms:
              1
     1  O    0.052809
     2  O    0.020317
     3  C    0.379376
     4  C    0.297527
     5  C   -0.280251
     6  C   -0.172595
     7  C   -0.297183
     8  H    0.000000
     9  H    0.000000
    10  H    0.000000
    11  H    0.000000
    12  H    0.000000
    13  H    0.000000
    14  H    0.000000
    15  H    0.000000
    16  H    0.000000
    17  H    0.000000
    18  H    0.000000
 Sum of APT charges=   0.00000
 Electronic spatial extent (au):  <R**2>=           1224.8377
 Charge=              0.0000 electrons
 Dipole moment (field-independent basis, Debye):
    X=              3.4291    Y=             -0.8642    Z=             -0.3962  Tot=              3.5585
 Quadrupole moment (field-independent basis, Debye-Ang):
   XX=            -53.7779   YY=            -39.1353   ZZ=            -44.6986
   XY=              1.5461   XZ=              0.5569   YZ=              0.8121
 Traceless Quadrupole moment (field-independent basis, Debye-Ang):
   XX=             -7.9073   YY=              6.7353   ZZ=              1.1720
   XY=              1.5461   XZ=              0.5569   YZ=              0.8121
 Octapole moment (field-independent basis, Debye-Ang**2):
  XXX=             17.6145  YYY=             -9.1920  ZZZ=             -0.9653  XYY=            -15.6261
  XXY=             -9.0164  XXZ=             -2.3996  XZZ=             -2.8163  YZZ=             -0.5942
  YYZ=             -4.2570  XYZ=             -3.8599
 Hexadecapole moment (field-independent basis, Debye-Ang**3):
 XXXX=          -1152.5819 YYYY=           -301.4819 ZZZZ=           -211.4108 XXXY=             17.6809
 XXXZ=             -1.1602 YYYX=             22.1729 YYYZ=              3.6941 ZZZX=              5.6680
 ZZZY=              7.6982 XXYY=           -205.4356 XXZZ=           -217.7849 YYZZ=            -83.6148
 XXYZ=              1.6257 YYXZ=             11.4377 ZZXY=              7.5471
 N-N= 2.957967872111D+02 E-N=-2.096015074636D+03  KE= 5.171737043293D+02
  Exact polarizability:   0.000   0.000   0.000   0.000   0.000   0.000
 Approx polarizability: 138.691   8.924 105.422   1.631   0.963  84.268
                          Isotropic Fermi Contact Couplings
        Atom                 a.u.       MegaHertz       Gauss      10(-4) cm-1
     1  O(17)              0.06077     -36.83768     -13.14460     -12.28773
     2  O(17)              0.01451      -8.79493      -3.13825      -2.93367
     3  C(13)             -0.02229     -25.06120      -8.94246      -8.35952
     4  C(13)              0.03236      36.38098      12.98164      12.13539
     5  C(13)              0.13442     151.11849      53.92283      50.40770
     6  C(13)             -0.00882      -9.91822      -3.53907      -3.30836
     7  C(13)             -0.00848      -9.53026      -3.40063      -3.17895
     8  H(1)              -0.00193      -8.64291      -3.08401      -2.88297
     9  H(1)               0.00474      21.19324       7.56228       7.06930
    10  H(1)              -0.03206    -143.29378     -51.13078     -47.79766
    11  H(1)              -0.00325     -14.53718      -5.18723      -4.84908
    12  H(1)              -0.00118      -5.25897      -1.87653      -1.75420
    13  H(1)               0.00590      26.37283       9.41048       8.79703
    14  H(1)               0.00397      17.74576       6.33213       5.91935
    15  H(1)               0.00001       0.05790       0.02066       0.01931
    16  H(1)               0.00589      26.31652       9.39039       8.77825
    17  H(1)              -0.00001      -0.04991      -0.01781      -0.01665
    18  H(1)               0.00537      24.00089       8.56411       8.00584
 --------------------------------------------------------
       Center         ----  Spin Dipole Couplings  ----
                      3XX-RR        3YY-RR        3ZZ-RR
 --------------------------------------------------------
     1   Atom        0.243447     -0.406392      0.162945
     2   Atom        0.271025     -0.025671     -0.245354
     3   Atom        0.025431     -0.000162     -0.025269
     4   Atom        0.038098     -0.038469      0.000370
     5   Atom        0.183691      0.065666     -0.249357
     6   Atom       -0.001484     -0.000324      0.001808
     7   Atom        0.003434     -0.000871     -0.002563
     8   Atom       -0.005169      0.019919     -0.014750
     9   Atom        0.001808     -0.001566     -0.000242
    10   Atom        0.054406      0.023693     -0.078100
[...]
     13          1           0        1.506600    1.857769    1.004838
     14          1           0        1.677780    0.407783    2.001134
     15          1           0        2.999678    0.917499    0.973012
     16          1           0        2.549197   -1.253594   -1.417135
     17          1           0        3.042376   -1.368350    0.271239
     18          1           0        1.560892   -2.153710   -0.280936
 ---------------------------------------------------------------------
 Rotational constants (GHZ):      3.6329189      1.2332414      1.1053377
 Leave Link  202 at Wed Jun 13 11:37:25 2018, MaxMem=  671088640 cpu:       0.8
 (Enter /shared/apps/gaussian/G09_LINUX_LINDA/g09/l301.exe)
 Standard basis: 6-311+G(2df,2p) (5D, 7F)
 Ernie: Thresh=  0.10000D-02 Tol=  0.10000D-05 Strict=F.
 There are   337 symmetry adapted basis functions of A   symmetry.
 Integral buffers will be    131072 words long.
 Raffenetti 2 integral format.
 Two-electron integral symmetry is turned on.
   337 basis functions,   485 primitive gaussians,   372 cartesian basis functions
    29 alpha electrons       28 beta electrons
       nuclear repulsion energy       303.6494918782 Hartrees.
 IExCor= 4336 DFT=T Ex+Corr=M062X ExCW=0 ScaHFX=  0.540000
 ScaDFX=  1.000000  1.000000  1.000000  1.000000 ScalE2=  1.000000  1.000000
 IRadAn=      0 IRanWt=     -1 IRanGd=            0 ICorTp=0
 NAtoms=   18 NActive=   18 NUniq=   18 SFac= 1.00D+00 NAtFMM=   50 NAOKFM=F Big=F
 Leave Link  301 at Wed Jun 13 11:37:25 2018, MaxMem=  671088640 cpu:       1.0
 (Enter /shared/apps/gaussian/G09_LINUX_LINDA/g09/l302.exe)
 NPDir=0 NMtPBC=     1 NCelOv=     1 NCel=       1 NClECP=     1 NCelD=      1
         NCelK=      1 NCelE2=     1 NClLst=     1 CellRange=     0.0.
 One-electron integrals computed using PRISM.
 NBasis=   337 RedAO= T  NBF=   337
 NBsUse=   337 1.00D-06 NBFU=   337
 Precomputing XC quadrature grid using
 IXCGrd= 2 IRadAn=           0 IRanWt=          -1 IRanGd=           0 AccXCQ= 0.00D+00.
 NRdTot=    1162 NPtTot=      147046 NUsed=      155427 NTot=      155459
 NSgBfM=   372   372   372   372   372 NAtAll=    18    18.
 Leave Link  302 at Wed Jun 13 11:37:27 2018, MaxMem=  671088640 cpu:      17.2
 (Enter /shared/apps/gaussian/G09_LINUX_LINDA/g09/l303.exe)
 DipDrv:  MaxL=1.
 Leave Link  303 at Wed Jun 13 11:37:27 2018, MaxMem=  671088640 cpu:       3.1
 (Enter /shared/apps/gaussian/G09_LINUX_LINDA/g09/l401.exe)
 Initial guess read from the read-write file.
 B after Tr=     0.000000    0.000000    0.000000
         Rot=    1.000000    0.000000    0.000000    0.000000 Ang=   0.00 deg.
 Guess basis will be translated and rotated to current coordinates.
 Initial guess orbital symmetries:
 Alpha Orbitals:
       Occupied  (A) (A) (A) (A) (A) (A) (A) (A) (A) (A) (A) (A)
                 (A) (A) (A) (A) (A) (A) (A) (A) (A) (A) (A) (A)
                 (A) (A) (A) (A) (A)
       Virtual   (A) (A) (A) (A) (A) (A) (A) (A) (A) (A) (A) (A)
                 (A) (A) (A) (A) (A) (A) (A) (A) (A) (A) (A) (A)
                 (A) (A) (A) (A) (A) (A) (A) (A) (A) (A) (A) (A)
                 (A) (A) (A) (A) (A) (A) (A) (A) (A) (A) (A) (A)
                 (A) (A) (A) (A) (A) (A) (A) (A) (A) (A) (A) (A)
                 (A) (A) (A) (A) (A) (A) (A) (A) (A) (A) (A) (A)
                 (A) (A) (A) (A) (A) (A) (A) (A) (A) (A) (A) (A)
                 (A) (A) (A) (A) (A) (A) (A) (A) (A) (A) (A) (A)
                 (A) (A) (A) (A) (A) (A) (A) (A) (A) (A) (A) (A)
                 (A) (A) (A) (A) (A) (A) (A) (A) (A) (A) (A) (A)
                 (A) (A) (A) (A) (A) (A) (A) (A) (A) (A) (A) (A)
                 (A) (A) (A) (A) (A) (A) (A) (A) (A) (A) (A) (A)
                 (A) (A) (A) (A) (A) (A) (A) (A) (A) (A) (A) (A)
                 (A) (A) (A) (A) (A) (A) (A) (A) (A) (A) (A) (A)
                 (A) (A) (A) (A) (A) (A) (A) (A) (A) (A) (A) (A)
                 (A) (A) (A) (A) (A) (A) (A) (A) (A) (A) (A) (A)
                 (A) (A) (A) (A) (A) (A) (A) (A) (A) (A) (A) (A)
                 (A) (A) (A) (A) (A) (A) (A) (A) (A) (A) (A) (A)
                 (A) (A) (A) (A) (A) (A) (A) (A) (A) (A) (A) (A)
                 (A) (A) (A) (A) (A) (A) (A) (A) (A) (A) (A) (A)
                 (A) (A) (A) (A) (A) (A) (A) (A) (A) (A) (A) (A)
                 (A) (A) (A) (A) (A) (A) (A) (A) (A) (A) (A) (A)
                 (A) (A) (A) (A) (A) (A) (A) (A) (A) (A) (A) (A)
                 (A) (A) (A) (A) (A) (A) (A) (A) (A) (A) (A) (A)
                 (A) (A) (A) (A) (A) (A) (A) (A) (A) (A) (A) (A)
                 (A) (A) (A) (A) (A) (A) (A) (A)
 Beta  Orbitals:
       Occupied  (A) (A) (A) (A) (A) (A) (A) (A) (A) (A) (A) (A)
                 (A) (A) (A) (A) (A) (A) (A) (A) (A) (A) (A) (A)
                 (A) (A) (A) (A)
       Virtual   (A) (A) (A) (A) (A) (A) (A) (A) (A) (A) (A) (A)
                 (A) (A) (A) (A) (A) (A) (A) (A) (A) (A) (A) (A)
                 (A) (A) (A) (A) (A) (A) (A) (A) (A) (A) (A) (A)
                 (A) (A) (A) (A) (A) (A) (A) (A) (A) (A) (A) (A)
                 (A) (A) (A) (A) (A) (A) (A) (A) (A) (A) (A) (A)
                 (A) (A) (A) (A) (A) (A) (A) (A) (A) (A) (A) (A)
                 (A) (A) (A) (A) (A) (A) (A) (A) (A) (A) (A) (A)
                 (A) (A) (A) (A) (A) (A) (A) (A) (A) (A) (A) (A)
                 (A) (A) (A) (A) (A) (A) (A) (A) (A) (A) (A) (A)
                 (A) (A) (A) (A) (A) (A) (A) (A) (A) (A) (A) (A)
                 (A) (A) (A) (A) (A) (A) (A) (A) (A) (A) (A) (A)
                 (A) (A) (A) (A) (A) (A) (A) (A) (A) (A) (A) (A)
                 (A) (A) (A) (A) (A) (A) (A) (A) (A) (A) (A) (A)
                 (A) (A) (A) (A) (A) (A) (A) (A) (A) (A) (A) (A)
                 (A) (A) (A) (A) (A) (A) (A) (A) (A) (A) (A) (A)
                 (A) (A) (A) (A) (A) (A) (A) (A) (A) (A) (A) (A)
                 (A) (A) (A) (A) (A) (A) (A) (A) (A) (A) (A) (A)
                 (A) (A) (A) (A) (A) (A) (A) (A) (A) (A) (A) (A)
                 (A) (A) (A) (A) (A) (A) (A) (A) (A) (A) (A) (A)
                 (A) (A) (A) (A) (A) (A) (A) (A) (A) (A) (A) (A)
                 (A) (A) (A) (A) (A) (A) (A) (A) (A) (A) (A) (A)
                 (A) (A) (A) (A) (A) (A) (A) (A) (A) (A) (A) (A)
                 (A) (A) (A) (A) (A) (A) (A) (A) (A) (A) (A) (A)
                 (A) (A) (A) (A) (A) (A) (A) (A) (A) (A) (A) (A)
                 (A) (A) (A) (A) (A) (A) (A) (A) (A) (A) (A) (A)
                 (A) (A) (A) (A) (A) (A) (A) (A) (A)
 The electronic state of the initial guess is 2-A.
 Initial guess <Sx>= 0.0000 <Sy>= 0.0000 <Sz>= 0.5000 <S**2>= 0.7719 S= 0.5109
 Generating alternative initial guess.
 Harris functional with IExCor= 1009 diagonalized for initial guess.
 ExpMin= 4.38D-02 ExpMax= 8.59D+03 ExpMxC= 1.30D+03 IAcc=2 IRadAn=         0 AccDes= 0.00D+00
 HarFok:  IExCor= 1009 AccDes= 0.00D+00 IRadAn=         0 IDoV= 1
 ScaDFX=  1.000000  1.000000  1.000000  1.000000
 FoFCou: FMM=F IPFlag=           0 FMFlag=      100000 FMFlg1=           0
         NFxFlg=           0 DoJE=T BraDBF=F KetDBF=T FulRan=T
         Omega=  0.000000  0.000000  1.000000  0.000000  0.000000 ICntrl=     500 IOpCl=  0
         NMat0=    1 NMatS0=    1 NMatT0=    0 NMatD0=    1 NMtDS0=    0 NMtDT0=    0
         I1Cent=           4 NGrid=           0.
 Petite list used in FoFCou.
 Harris En= -347.276554360883    
 Leave Link  401 at Wed Jun 13 11:37:39 2018, MaxMem=  671088640 cpu:     114.7
 (Enter /shared/apps/gaussian/G09_LINUX_LINDA/g09/l502.exe)
 UHF open shell SCF:
 Requested convergence on RMS density matrix=1.00D-08 within 128 cycles.
 Requested convergence on MAX density matrix=1.00D-06.
 Requested convergence on             energy=1.00D-06.
 No special actions if energy rises.
 Using DIIS extrapolation, IDIIS=  1040.
 Integral symmetry usage will be decided dynamically.
       155252 words used for storage of precomputed grid.
 IEnd=      598706 IEndB=      598706 NGot=   671088640 MDV=   670645331
 LenX=   670645331 LenY=   670506506
 Fock matrices will be formed incrementally for  20 cycles.

 Cycle   1  Pass 1  IDiag  1:
 FoFCou: FMM=F IPFlag=           0 FMFlag=      100000 FMFlg1=           0
         NFxFlg=           0 DoJE=F BraDBF=F KetDBF=F FulRan=T
         Omega=  0.000000  0.000000  1.000000  0.000000  0.000000 ICntrl=       0 IOpCl=  1
         NMat0=    1 NMatS0=    1 NMatT0=    0 NMatD0=    1 NMtDS0=    0 NMtDT0=    0
         I1Cent=           0 NGrid=           0.
 Symmetry not used in FoFCou.
 E= -347.282355179794    
 DIIS: error= 9.31D-03 at cycle   1 NSaved=   1.
 NSaved= 1 IEnMin= 1 EnMin= -347.282355179794     IErMin= 1 ErrMin= 9.31D-03
 ErrMax= 9.31D-03 EMaxC= 1.00D-01 BMatC= 2.03D-01 BMatP= 2.03D-01
 IDIUse=3 WtCom= 9.07D-01 WtEn= 9.31D-02
 Coeff-Com:  0.100D+01
 Coeff-En:   0.100D+01
 Coeff:      0.100D+01
 Gap=     0.320 Goal=   None    Shift=    0.000
 Gap=     0.527 Goal=   None    Shift=    0.000
 GapD=    0.320 DampG=1.000 DampE=1.000 DampFc=1.0000 IDamp=-1.
 RMSDP=2.90D-03 MaxDP=3.41D-01              OVMax= 1.07D-01

 Cycle   2  Pass 1  IDiag  1:
 RMSU=  1.83D-03    CP:  9.03D-01
 E= -347.363414522500     Delta-E=       -0.081059342707 Rises=F Damp=F
 DIIS: error= 4.08D-03 at cycle   2 NSaved=   2.
 NSaved= 2 IEnMin= 2 EnMin= -347.363414522500     IErMin= 2 ErrMin= 4.08D-03
 ErrMax= 4.08D-03 EMaxC= 1.00D-01 BMatC= 1.24D-02 BMatP= 2.03D-01
 IDIUse=3 WtCom= 9.59D-01 WtEn= 4.08D-02
 Coeff-Com: -0.100D+00 0.110D+01
 Coeff-En:   0.000D+00 0.100D+01
 Coeff:     -0.963D-01 0.110D+01
 Gap=     0.273 Goal=   None    Shift=    0.000
 Gap=     0.206 Goal=   None    Shift=    0.000
 RMSDP=4.33D-04 MaxDP=2.70D-02 DE=-8.11D-02 OVMax= 4.18D-02

 Cycle   3  Pass 1  IDiag  1:
 RMSU=  2.59D-04    CP:  8.94D-01  1.07D+00
 E= -347.368556296123     Delta-E=       -0.005141773622 Rises=F Damp=F
 DIIS: error= 2.02D-03 at cycle   3 NSaved=   3.
 NSaved= 3 IEnMin= 3 EnMin= -347.368556296123     IErMin= 3 ErrMin= 2.02D-03
 ErrMax= 2.02D-03 EMaxC= 1.00D-01 BMatC= 9.52D-03 BMatP= 1.24D-02
 IDIUse=3 WtCom= 9.80D-01 WtEn= 2.02D-02
 Coeff-Com: -0.927D-01 0.551D+00 0.542D+00
 Coeff-En:   0.000D+00 0.000D+00 0.100D+01
 Coeff:     -0.908D-01 0.540D+00 0.551D+00
 Gap=     0.274 Goal=   None    Shift=    0.000
 Gap=     0.209 Goal=   None    Shift=    0.000
 RMSDP=1.74D-04 MaxDP=1.19D-02 DE=-5.14D-03 OVMax= 1.24D-02

 Cycle   4  Pass 1  IDiag  1:
 RMSU=  1.25D-04    CP:  8.92D-01  1.06D+00  8.66D-01
 E= -347.370283211443     Delta-E=       -0.001726915320 Rises=F Damp=F
 DIIS: error= 1.04D-03 at cycle   4 NSaved=   4.
 NSaved= 4 IEnMin= 4 EnMin= -347.370283211443     IErMin= 4 ErrMin= 1.04D-03
 ErrMax= 1.04D-03 EMaxC= 1.00D-01 BMatC= 9.09D-04 BMatP= 9.52D-03
 IDIUse=3 WtCom= 9.90D-01 WtEn= 1.04D-02
 Coeff-Com: -0.102D-01-0.431D-01 0.200D+00 0.853D+00
 Coeff-En:   0.000D+00 0.000D+00 0.000D+00 0.100D+01
 Coeff:     -0.101D-01-0.427D-01 0.198D+00 0.855D+00
 Gap=     0.273 Goal=   None    Shift=    0.000
 Gap=     0.210 Goal=   None    Shift=    0.000
 RMSDP=8.89D-05 MaxDP=7.63D-03 DE=-1.73D-03 OVMax= 6.04D-03

 Cycle   5  Pass 1  IDiag  1:
 RMSU=  5.56D-05    CP:  8.95D-01  1.07D+00  9.78D-01  9.25D-01
 E= -347.370500788716     Delta-E=       -0.000217577273 Rises=F Damp=F
 DIIS: error= 2.71D-04 at cycle   5 NSaved=   5.
 NSaved= 5 IEnMin= 5 EnMin= -347.370500788716     IErMin= 5 ErrMin= 2.71D-04
 ErrMax= 2.71D-04 EMaxC= 1.00D-01 BMatC= 2.09D-04 BMatP= 9.09D-04
 IDIUse=3 WtCom= 9.97D-01 WtEn= 2.71D-03
 Coeff-Com:  0.658D-02-0.942D-01 0.276D-01 0.446D+00 0.614D+00
 Coeff-En:   0.000D+00 0.000D+00 0.000D+00 0.000D+00 0.100D+01
 Coeff:      0.657D-02-0.940D-01 0.275D-01 0.445D+00 0.615D+00
 Gap=     0.273 Goal=   None    Shift=    0.000
 Gap=     0.209 Goal=   None    Shift=    0.000
 RMSDP=4.00D-05 MaxDP=3.91D-03 DE=-2.18D-04 OVMax= 3.37D-03

 Cycle   6  Pass 1  IDiag  1:
 RMSU=  2.04D-05    CP:  8.94D-01  1.06D+00  1.00D+00  1.05D+00  8.35D-01
 E= -347.370546938433     Delta-E=       -0.000046149717 Rises=F Damp=F
 DIIS: error= 9.37D-05 at cycle   6 NSaved=   6.
 NSaved= 6 IEnMin= 6 EnMin= -347.370546938433     IErMin= 6 ErrMin= 9.37D-05
 ErrMax= 9.37D-05 EMaxC= 1.00D-01 BMatC= 1.84D-05 BMatP= 2.09D-04
 IDIUse=1 WtCom= 1.00D+00 WtEn= 0.00D+00
 Coeff-Com:  0.382D-02-0.299D-01-0.152D-01 0.683D-01 0.261D+00 0.712D+00
 Coeff:      0.382D-02-0.299D-01-0.152D-01 0.683D-01 0.261D+00 0.712D+00
 Gap=     0.273 Goal=   None    Shift=    0.000
 Gap=     0.209 Goal=   None    Shift=    0.000
 RMSDP=1.38D-05 MaxDP=1.81D-03 DE=-4.61D-05 OVMax= 1.49D-03

 Cycle   7  Pass 1  IDiag  1:
 RMSU=  6.53D-06    CP:  8.94D-01  1.06D+00  1.00D+00  1.05D+00  9.54D-01
                    CP:  9.33D-01
 E= -347.370552221119     Delta-E=       -0.000005282686 Rises=F Damp=F
 DIIS: error= 2.47D-05 at cycle   7 NSaved=   7.
 NSaved= 7 IEnMin= 7 EnMin= -347.370552221119     IErMin= 7 ErrMin= 2.47D-05
 ErrMax= 2.47D-05 EMaxC= 1.00D-01 BMatC= 1.98D-06 BMatP= 1.84D-05
 IDIUse=1 WtCom= 1.00D+00 WtEn= 0.00D+00
 Coeff-Com:  0.390D-03 0.309D-02-0.903D-02-0.400D-01-0.107D-01 0.218D+00
 Coeff-Com:  0.838D+00
 Coeff:      0.390D-03 0.309D-02-0.903D-02-0.400D-01-0.107D-01 0.218D+00
 Coeff:      0.838D+00
 Gap=     0.273 Goal=   None    Shift=    0.000
 Gap=     0.209 Goal=   None    Shift=    0.000
 RMSDP=5.86D-06 MaxDP=2.68D-04 DE=-5.28D-06 OVMax= 4.20D-04

 Cycle   8  Pass 1  IDiag  1:
 RMSU=  2.84D-06    CP:  8.94D-01  1.06D+00  1.00D+00  1.06D+00  9.87D-01
                    CP:  1.07D+00  1.07D+00
 E= -347.370553087770     Delta-E=       -0.000000866651 Rises=F Damp=F
 DIIS: error= 1.17D-05 at cycle   8 NSaved=   8.
 NSaved= 8 IEnMin= 8 EnMin= -347.370553087770     IErMin= 8 ErrMin= 1.17D-05
 ErrMax= 1.17D-05 EMaxC= 1.00D-01 BMatC= 4.13D-07 BMatP= 1.98D-06
 IDIUse=1 WtCom= 1.00D+00 WtEn= 0.00D+00
 Coeff-Com: -0.564D-03 0.688D-02-0.560D-03-0.283D-01-0.571D-01-0.450D-01
 Coeff-Com:  0.319D+00 0.806D+00
 Coeff:     -0.564D-03 0.688D-02-0.560D-03-0.283D-01-0.571D-01-0.450D-01
 Coeff:      0.319D+00 0.806D+00
 Gap=     0.273 Goal=   None    Shift=    0.000
 Gap=     0.209 Goal=   None    Shift=    0.000
 RMSDP=2.37D-06 MaxDP=1.18D-04 DE=-8.67D-07 OVMax= 2.24D-04

 Cycle   9  Pass 1  IDiag  1:
 RMSU=  1.01D-06    CP:  8.94D-01  1.06D+00  9.99D-01  1.06D+00  9.96D-01
                    CP:  1.11D+00  1.21D+00  1.18D+00
 E= -347.370553286580     Delta-E=       -0.000000198811 Rises=F Damp=F
 DIIS: error= 4.52D-06 at cycle   9 NSaved=   9.
 NSaved= 9 IEnMin= 9 EnMin= -347.370553286580     IErMin= 9 ErrMin= 4.52D-06
 ErrMax= 4.52D-06 EMaxC= 1.00D-01 BMatC= 3.59D-08 BMatP= 4.13D-07
 IDIUse=1 WtCom= 1.00D+00 WtEn= 0.00D+00
 Coeff-Com: -0.859D-04 0.198D-03 0.118D-02 0.232D-02-0.575D-02-0.210D-01
 Coeff-Com: -0.735D-01 0.723D-01 0.102D+01
 Coeff:     -0.859D-04 0.198D-03 0.118D-02 0.232D-02-0.575D-02-0.210D-01
 Coeff:     -0.735D-01 0.723D-01 0.102D+01
 Gap=     0.273 Goal=   None    Shift=    0.000
 Gap=     0.209 Goal=   None    Shift=    0.000
 RMSDP=1.04D-06 MaxDP=4.11D-05 DE=-1.99D-07 OVMax= 1.21D-04

 Cycle  10  Pass 1  IDiag  1:
 RMSU=  4.14D-07    CP:  8.94D-01  1.06D+00  1.00D+00  1.06D+00  9.95D-01
                    CP:  1.12D+00  1.24D+00  1.35D+00  1.32D+00
 E= -347.370553316827     Delta-E=       -0.000000030246 Rises=F Damp=F
 DIIS: error= 2.91D-06 at cycle  10 NSaved=  10.
 NSaved=10 IEnMin=10 EnMin= -347.370553316827     IErMin=10 ErrMin= 2.91D-06
 ErrMax= 2.91D-06 EMaxC= 1.00D-01 BMatC= 1.23D-08 BMatP= 3.59D-08
 IDIUse=1 WtCom= 1.00D+00 WtEn= 0.00D+00
 Coeff-Com:  0.547D-04-0.997D-03 0.589D-03 0.548D-02 0.659D-02 0.148D-02
 Coeff-Com: -0.886D-01-0.113D+00 0.432D+00 0.757D+00
 Coeff:      0.547D-04-0.997D-03 0.589D-03 0.548D-02 0.659D-02 0.148D-02
 Coeff:     -0.886D-01-0.113D+00 0.432D+00 0.757D+00
 Gap=     0.273 Goal=   None    Shift=    0.000
 Gap=     0.209 Goal=   None    Shift=    0.000
 RMSDP=4.62D-07 MaxDP=1.95D-05 DE=-3.02D-08 OVMax= 7.02D-05

 Cycle  11  Pass 1  IDiag  1:
 RMSU=  2.16D-07    CP:  8.94D-01  1.06D+00  1.00D+00  1.06D+00  9.95D-01
                    CP:  1.12D+00  1.24D+00  1.41D+00  1.47D+00  1.19D+00
 E= -347.370553326130     Delta-E=       -0.000000009303 Rises=F Damp=F
 DIIS: error= 1.41D-06 at cycle  11 NSaved=  11.
 NSaved=11 IEnMin=11 EnMin= -347.370553326130     IErMin=11 ErrMin= 1.41D-06
 ErrMax= 1.41D-06 EMaxC= 1.00D-01 BMatC= 2.11D-09 BMatP= 1.23D-08
 IDIUse=1 WtCom= 1.00D+00 WtEn= 0.00D+00
 Coeff-Com:  0.198D-04-0.103D-03-0.252D-03-0.229D-03 0.150D-02 0.700D-02
 Coeff-Com:  0.991D-02-0.256D-01-0.175D+00 0.270D-01 0.116D+01
 Coeff:      0.198D-04-0.103D-03-0.252D-03-0.229D-03 0.150D-02 0.700D-02
 Coeff:      0.991D-02-0.256D-01-0.175D+00 0.270D-01 0.116D+01
 Gap=     0.273 Goal=   None    Shift=    0.000
 Gap=     0.209 Goal=   None    Shift=    0.000
 RMSDP=3.33D-07 MaxDP=2.34D-05 DE=-9.30D-09 OVMax= 6.70D-05

 Cycle  12  Pass 1  IDiag  1:
 RMSU=  9.64D-08    CP:  8.94D-01  1.06D+00  1.00D+00  1.06D+00  9.95D-01
                    CP:  1.12D+00  1.24D+00  1.43D+00  1.53D+00  1.55D+00
                    CP:  1.63D+00
 E= -347.370553329927     Delta-E=       -0.000000003797 Rises=F Damp=F
 DIIS: error= 1.57D-06 at cycle  12 NSaved=  12.
 NSaved=12 IEnMin=12 EnMin= -347.370553329927     IErMin=11 ErrMin= 1.41D-06
 ErrMax= 1.57D-06 EMaxC= 1.00D-01 BMatC= 1.18D-09 BMatP= 2.11D-09
 IDIUse=1 WtCom= 1.00D+00 WtEn= 0.00D+00
 Coeff-Com: -0.530D-05 0.225D-03-0.268D-03-0.161D-02-0.132D-02 0.411D-02
 Coeff-Com:  0.274D-01 0.185D-01-0.202D+00-0.187D+00 0.560D+00 0.783D+00
 Coeff:     -0.530D-05 0.225D-03-0.268D-03-0.161D-02-0.132D-02 0.411D-02
 Coeff:      0.274D-01 0.185D-01-0.202D+00-0.187D+00 0.560D+00 0.783D+00
 Gap=     0.273 Goal=   None    Shift=    0.000
 Gap=     0.209 Goal=   None    Shift=    0.000
 RMSDP=1.88D-07 MaxDP=1.19D-05 DE=-3.80D-09 OVMax= 4.13D-05

 Cycle  13  Pass 1  IDiag  1:
 RMSU=  5.47D-08    CP:  8.94D-01  1.06D+00  1.00D+00  1.06D+00  9.95D-01
                    CP:  1.12D+00  1.24D+00  1.44D+00  1.55D+00  1.72D+00
                    CP:  2.01D+00  1.46D+00
 E= -347.370553331303     Delta-E=       -0.000000001375 Rises=F Damp=F
 DIIS: error= 5.49D-07 at cycle  13 NSaved=  13.
 NSaved=13 IEnMin=13 EnMin= -347.370553331303     IErMin=13 ErrMin= 5.49D-07
 ErrMax= 5.49D-07 EMaxC= 1.00D-01 BMatC= 3.43D-10 BMatP= 1.18D-09
 IDIUse=1 WtCom= 1.00D+00 WtEn= 0.00D+00
 Coeff-Com: -0.132D-04 0.159D-03 0.579D-04-0.551D-03-0.171D-02-0.121D-02
 Coeff-Com:  0.393D-02 0.220D-01 0.127D-01-0.736D-01-0.393D+00 0.221D+00
 Coeff-Com:  0.121D+01
 Coeff:     -0.132D-04 0.159D-03 0.579D-04-0.551D-03-0.171D-02-0.121D-02
 Coeff:      0.393D-02 0.220D-01 0.127D-01-0.736D-01-0.393D+00 0.221D+00
 Coeff:      0.121D+01
 Gap=     0.273 Goal=   None    Shift=    0.000
 Gap=     0.209 Goal=   None    Shift=    0.000
 RMSDP=1.91D-07 MaxDP=1.26D-05 DE=-1.38D-09 OVMax= 4.46D-05

 Cycle  14  Pass 1  IDiag  1:
 RMSU=  3.08D-08    CP:  8.94D-01  1.06D+00  1.00D+00  1.06D+00  9.95D-01
                    CP:  1.13D+00  1.24D+00  1.45D+00  1.56D+00  1.89D+00
                    CP:  2.38D+00  2.18D+00  1.57D+00
 E= -347.370553331966     Delta-E=       -0.000000000663 Rises=F Damp=F
 DIIS: error= 1.92D-07 at cycle  14 NSaved=  14.
 NSaved=14 IEnMin=14 EnMin= -347.370553331966     IErMin=14 ErrMin= 1.92D-07
 ErrMax= 1.92D-07 EMaxC= 1.00D-01 BMatC= 3.68D-11 BMatP= 3.43D-10
 IDIUse=1 WtCom= 1.00D+00 WtEn= 0.00D+00
 Coeff-Com: -0.706D-06-0.212D-04 0.604D-04 0.215D-03-0.479D-04-0.979D-03
 Coeff-Com: -0.407D-02 0.832D-03 0.370D-01 0.197D-01-0.139D+00-0.127D+00
 Coeff-Com:  0.128D+00 0.109D+01
 Coeff:     -0.706D-06-0.212D-04 0.604D-04 0.215D-03-0.479D-04-0.979D-03
 Coeff:     -0.407D-02 0.832D-03 0.370D-01 0.197D-01-0.139D+00-0.127D+00
 Coeff:      0.128D+00 0.109D+01
 Gap=     0.273 Goal=   None    Shift=    0.000
 Gap=     0.209 Goal=   None    Shift=    0.000
 RMSDP=6.20D-08 MaxDP=2.49D-06 DE=-6.63D-10 OVMax= 1.69D-05

 Cycle  15  Pass 1  IDiag  1:
 RMSU=  1.40D-08    CP:  8.94D-01  1.06D+00  1.00D+00  1.06D+00  9.95D-01
                    CP:  1.13D+00  1.24D+00  1.45D+00  1.56D+00  1.93D+00
                    CP:  2.45D+00  2.40D+00  1.92D+00  1.45D+00
