 Entering Gaussian System, Link 0=g09
 Initial command:
 /shared/apps/gaussian/G09_LINUX_LINDA/g09/l1.exe /home/harms.n/Code/AutoTST/discovery_test/test/Gau-37165.inp -scrdir=/home/harms.n/Code/AutoTST/discovery_test/test/
 Entering Link 1 = /shared/apps/gaussian/G09_LINUX_LINDA/g09/l1.exe PID=     37166.
  
 Copyright (c) 1988,1990,1992,1993,1995,1998,2003,2009,2010,
            Gaussian, Inc.  All Rights Reserved.
  
 This is part of the Gaussian(R) 09 program.  It is based on
 the Gaussian(R) 03 system (copyright 2003, Gaussian, Inc.),
 the Gaussian(R) 98 system (copyright 1998, Gaussian, Inc.),
 the Gaussian(R) 94 system (copyright 1995, Gaussian, Inc.),
 the Gaussian 92(TM) system (copyright 1992, Gaussian, Inc.),
 the Gaussian 90(TM) system (copyright 1990, Gaussian, Inc.),
 the Gaussian 88(TM) system (copyright 1988, Gaussian, Inc.),
 the Gaussian 86(TM) system (copyright 1986, Carnegie Mellon
 University), and the Gaussian 82(TM) system (copyright 1983,
 Carnegie Mellon University). Gaussian is a federally registered
 trademark of Gaussian, Inc.
  
 This software contains proprietary and confidential information,
 including trade secrets, belonging to Gaussian, Inc.
  
 This software is provided under written license and may be
 used, copied, transmitted, or stored only in accord with that
 written license.
  
 The following legend is applicable only to US Government
 contracts under FAR:
  
                    RESTRICTED RIGHTS LEGEND
  
 Use, reproduction and disclosure by the US Government is
 subject to restrictions as set forth in subparagraphs (a)
 and (c) of the Commercial Computer Software - Restricted
 Rights clause in FAR 52.227-19.
  
 Gaussian, Inc.
 340 Quinnipiac St., Bldg. 40, Wallingford CT 06492
  
  
 ---------------------------------------------------------------
 Warning -- This program may not be used in any manner that
 competes with the business of Gaussian, Inc. or will provide
 assistance to any competitor of Gaussian, Inc.  The licensee
 of this program is prohibited from giving any competitor of
 Gaussian, Inc. access to this program.  By using this program,
 the user acknowledges that Gaussian, Inc. is engaged in the
 business of creating and licensing software in the field of
 computational chemistry and represents and warrants to the
 licensee that it is not a competitor of Gaussian, Inc. and that
 it will not use this program in any manner prohibited above.
 ---------------------------------------------------------------
  

 Cite this work as:
 Gaussian 09, Revision B.01,
 M. J. Frisch, G. W. Trucks, H. B. Schlegel, G. E. Scuseria, 
 M. A. Robb, J. R. Cheeseman, G. Scalmani, V. Barone, B. Mennucci, 
 G. A. Petersson, H. Nakatsuji, M. Caricato, X. Li, H. P. Hratchian, 
 A. F. Izmaylov, J. Bloino, G. Zheng, J. L. Sonnenberg, M. Hada, 
 M. Ehara, K. Toyota, R. Fukuda, J. Hasegawa, M. Ishida, T. Nakajima, 
 Y. Honda, O. Kitao, H. Nakai, T. Vreven, J. A. Montgomery, Jr., 
 J. E. Peralta, F. Ogliaro, M. Bearpark, J. J. Heyd, E. Brothers, 
 K. N. Kudin, V. N. Staroverov, T. Keith, R. Kobayashi, J. Normand, 
 K. Raghavachari, A. Rendell, J. C. Burant, S. S. Iyengar, J. Tomasi, 
 M. Cossi, N. Rega, J. M. Millam, M. Klene, J. E. Knox, J. B. Cross, 
 V. Bakken, C. Adamo, J. Jaramillo, R. Gomperts, R. E. Stratmann, 
 O. Yazyev, A. J. Austin, R. Cammi, C. Pomelli, J. W. Ochterski, 
 R. L. Martin, K. Morokuma, V. G. Zakrzewski, G. A. Voth, 
 P. Salvador, J. J. Dannenberg, S. Dapprich, A. D. Daniels, 
 O. Farkas, J. B. Foresman, J. V. Ortiz, J. Cioslowski, 
 and D. J. Fox, Gaussian, Inc., Wallingford CT, 2010.
 
 ******************************************
 Gaussian 09:  EM64L-G09RevB.01 12-Aug-2010
                12-Jun-2018 
 ******************************************
 %nprocshared=20
 Will use up to   20 processors via shared memory.
 %mem=5GB
 ---------------------------------------------------------------
 #p m062x/6-311+g(2df,2p) opt=(verytight,gdiis) freq IOP(2/16=3)
 ---------------------------------------------------------------

 Warning!  Use of Opt=GDIIS is deprecated since it is seldom a good choice.

 1/7=1,14=-1,18=20,19=11,26=3,38=1/1,3;
 2/9=110,12=2,16=3,17=6,18=5,40=1/2;
 3/5=4,6=6,7=214,11=2,16=1,25=1,30=1,71=1,74=-55/1,2,3;
 4//1;
 5/5=2,38=5/2;
 6/7=2,8=2,9=2,10=2,28=1/1;
 7//1,2,3,16;
 1/7=1,14=-1,18=20,19=11/3(2);
 2/9=110,16=3/2;
 99//99;
 2/9=110,16=3/2;
 3/5=4,6=6,7=214,11=2,16=1,25=1,30=1,71=1,74=-55/1,2,3;
 4/5=5,16=3/1;
 5/5=2,38=5/2;
 7//1,2,3,16;
 1/7=1,14=-1,18=20,19=11/3(-5);
 2/9=110,16=3/2;
 6/7=2,8=2,9=2,10=2,19=2,28=1/1;
 99/9=1/99;
 Leave Link    1 at Tue Jun 12 15:55:33 2018, MaxMem=  671088640 cpu:       1.1
 (Enter /shared/apps/gaussian/G09_LINUX_LINDA/g09/l101.exe)
 ------------------------------
 Gaussian input prepared by ASE
 ------------------------------
 Symbolic Z-matrix:
 Charge =  0 Multiplicity = 1
 O                     0.5279   -0.3608    0.1429 
 O                    -0.544     0.3987    0.1194 
 H                     1.3378    0.1343   -0.1343 
 H                    -1.3217   -0.1722   -0.128 
 
 NAtoms=      4 NQM=      4 NQMF=      0 NMic=      0 NMicF=      0 NTot=      4.
                    Isotopes and Nuclear Properties:
 (Nuclear quadrupole moments (NQMom) in fm**2, nuclear magnetic moments (NMagM)
  in nuclear magnetons)

  Atom         1           2           3           4
 IAtWgt=          16          16           1           1
 AtmWgt=  15.9949146  15.9949146   1.0078250   1.0078250
 NucSpn=           0           0           1           1
 AtZEff=   0.0000000   0.0000000   0.0000000   0.0000000
 NQMom=    0.0000000   0.0000000   0.0000000   0.0000000
 NMagM=    0.0000000   0.0000000   2.7928460   2.7928460
 Leave Link  101 at Tue Jun 12 15:55:33 2018, MaxMem=  671088640 cpu:       1.1
 (Enter /shared/apps/gaussian/G09_LINUX_LINDA/g09/l103.exe)

 GradGradGradGradGradGradGradGradGradGradGradGradGradGradGradGradGradGrad
 Berny optimization.
 Initialization pass.
                           ----------------------------
                           !    Initial Parameters    !
                           ! (Angstroms and Degrees)  !
 --------------------------                            --------------------------
 ! Name  Definition              Value          Derivative Info.                !
 --------------------------------------------------------------------------------
 ! R1    R(1,2)                  1.3139         estimate D2E/DX2                !
 ! R2    R(1,3)                  0.9889         estimate D2E/DX2                !
 ! R3    R(2,4)                  0.996          estimate D2E/DX2                !
 ! A1    A(2,1,3)              111.9457         estimate D2E/DX2                !
 ! A2    A(1,2,4)              108.0667         estimate D2E/DX2                !
 ! D1    D(3,1,2,4)            147.1701         estimate D2E/DX2                !
 --------------------------------------------------------------------------------
 Trust Radius=3.00D-01 FncErr=1.00D-07 GrdErr=1.00D-06
 Number of steps in this run=     20 maximum allowed number of steps=    100.
 GradGradGradGradGradGradGradGradGradGradGradGradGradGradGradGradGradGrad

 Leave Link  103 at Tue Jun 12 15:55:33 2018, MaxMem=  671088640 cpu:       0.2
 (Enter /shared/apps/gaussian/G09_LINUX_LINDA/g09/l202.exe)
                          Input orientation:                          
 ---------------------------------------------------------------------
 Center     Atomic      Atomic             Coordinates (Angstroms)
 Number     Number       Type             X           Y           Z
 ---------------------------------------------------------------------
      1          8           0        0.527900   -0.360800    0.142900
      2          8           0       -0.544000    0.398700    0.119400
      3          1           0        1.337800    0.134300   -0.134300
      4          1           0       -1.321700   -0.172200   -0.128000
 ---------------------------------------------------------------------
                    Distance matrix (angstroms):
                    1          2          3          4
     1  O    0.000000
     2  O    1.313911   0.000000
     3  H    0.988889   1.917144   0.000000
     4  H    1.878823   0.995967   2.677111   0.000000
 Stoichiometry    H2O2
 Framework group  C1[X(H2O2)]
 Deg. of freedom     6
 Full point group                 C1      NOp   1
 Largest Abelian subgroup         C1      NOp   1
 Largest concise Abelian subgroup C1      NOp   1
                         Standard orientation:                         
 ---------------------------------------------------------------------
 Center     Atomic      Atomic             Coordinates (Angstroms)
 Number     Number       Type             X           Y           Z
 ---------------------------------------------------------------------
      1          8           0        0.637146    0.145198   -0.031504
      2          8           0       -0.643023   -0.150623   -0.026954
      3          1           0        1.195418   -0.625083    0.238497
      4          1           0       -1.148406    0.668486    0.229169
 ---------------------------------------------------------------------
 Rotational constants (GHZ):    332.5169396     31.2672330     29.0109364
 Leave Link  202 at Tue Jun 12 15:55:33 2018, MaxMem=  671088640 cpu:       0.9
 (Enter /shared/apps/gaussian/G09_LINUX_LINDA/g09/l301.exe)
 Standard basis: 6-311+G(2df,2p) (5D, 7F)
 Ernie: Thresh=  0.10000D-02 Tol=  0.10000D-05 Strict=F.
 There are    86 symmetry adapted basis functions of A   symmetry.
 Integral buffers will be    131072 words long.
 Raffenetti 2 integral format.
 Two-electron integral symmetry is turned on.
    86 basis functions,   126 primitive gaussians,    96 cartesian basis functions
     9 alpha electrons        9 beta electrons
       nuclear repulsion energy        38.9666048609 Hartrees.
 IExCor= 4336 DFT=T Ex+Corr=M062X ExCW=0 ScaHFX=  0.540000
 ScaDFX=  1.000000  1.000000  1.000000  1.000000 ScalE2=  1.000000  1.000000
 IRadAn=      0 IRanWt=     -1 IRanGd=            0 ICorTp=0
 NAtoms=    4 NActive=    4 NUniq=    4 SFac= 1.00D+00 NAtFMM=   50 NAOKFM=F Big=F
 Leave Link  301 at Tue Jun 12 15:55:33 2018, MaxMem=  671088640 cpu:       1.0
 (Enter /shared/apps/gaussian/G09_LINUX_LINDA/g09/l302.exe)
 NPDir=0 NMtPBC=     1 NCelOv=     1 NCel=       1 NClECP=     1 NCelD=      1
         NCelK=      1 NCelE2=     1 NClLst=     1 CellRange=     0.0.
 One-electron integrals computed using PRISM.
 NBasis=    86 RedAO= T  NBF=    86
 NBsUse=    86 1.00D-06 NBFU=    86
 Precomputing XC quadrature grid using
 IXCGrd= 2 IRadAn=           0 IRanWt=          -1 IRanGd=           0 AccXCQ= 0.00D+00.
 NRdTot=     252 NPtTot=       31844 NUsed=       33673 NTot=       33705
 NSgBfM=    96    96    96    96    96 NAtAll=     4     4.
 Leave Link  302 at Tue Jun 12 15:55:34 2018, MaxMem=  671088640 cpu:       8.3
 (Enter /shared/apps/gaussian/G09_LINUX_LINDA/g09/l303.exe)
 DipDrv:  MaxL=1.
 Leave Link  303 at Tue Jun 12 15:55:35 2018, MaxMem=  671088640 cpu:       3.5
 (Enter /shared/apps/gaussian/G09_LINUX_LINDA/g09/l401.exe)
 Harris functional with IExCor= 1009 diagonalized for initial guess.
 ExpMin= 8.45D-02 ExpMax= 8.59D+03 ExpMxC= 1.30D+03 IAcc=2 IRadAn=         0 AccDes= 0.00D+00
 HarFok:  IExCor= 1009 AccDes= 0.00D+00 IRadAn=         0 IDoV= 1
 ScaDFX=  1.000000  1.000000  1.000000  1.000000
 FoFCou: FMM=F IPFlag=           0 FMFlag=      100000 FMFlg1=           0
         NFxFlg=           0 DoJE=T BraDBF=F KetDBF=T FulRan=T
         Omega=  0.000000  0.000000  1.000000  0.000000  0.000000 ICntrl=     500 IOpCl=  0
         NMat0=    1 NMatS0=    1 NMatT0=    0 NMatD0=    1 NMtDS0=    0 NMtDT0=    0
         I1Cent=           4 NGrid=           0.
 Petite list used in FoFCou.
 Harris En= -151.462105463025    
 Initial guess orbital symmetries:
       Occupied  (A) (A) (A) (A) (A) (A) (A) (A) (A)
       Virtual   (A) (A) (A) (A) (A) (A) (A) (A) (A) (A) (A) (A)
                 (A) (A) (A) (A) (A) (A) (A) (A) (A) (A) (A) (A)
                 (A) (A) (A) (A) (A) (A) (A) (A) (A) (A) (A) (A)
                 (A) (A) (A) (A) (A) (A) (A) (A) (A) (A) (A) (A)
                 (A) (A) (A) (A) (A) (A) (A) (A) (A) (A) (A) (A)
                 (A) (A) (A) (A) (A) (A) (A) (A) (A) (A) (A) (A)
                 (A) (A) (A) (A) (A)
 The electronic state of the initial guess is 1-A.
 Leave Link  401 at Tue Jun 12 15:55:39 2018, MaxMem=  671088640 cpu:      38.0
 (Enter /shared/apps/gaussian/G09_LINUX_LINDA/g09/l502.exe)
 Closed shell SCF:
 Requested convergence on RMS density matrix=1.00D-08 within 128 cycles.
 Requested convergence on MAX density matrix=1.00D-06.
 Requested convergence on             energy=1.00D-06.
 No special actions if energy rises.
 Using DIIS extrapolation, IDIIS=  1040.
 Integral symmetry usage will be decided dynamically.
        33624 words used for storage of precomputed grid.
 Keep R1 ints in memory in canonical form, NReq=12863544.
 IEnd=       82034 IEndB=       82034 NGot=   671088640 MDV=   660191035
 LenX=   660191035 LenY=   660181378
 Symmetry not used in FoFDir.
 MinBra= 0 MaxBra= 3 Meth= 1.
 IRaf=       0 NMat=   1 IRICut=       1 DoRegI=T DoRafI=F ISym2E= 0 JSym2E=0.
 Integral accuracy reduced to 1.0D-05 until final iterations.

 Cycle   1  Pass 0  IDiag  1:
 E= -151.494784766416    
 DIIS: error= 2.55D-02 at cycle   1 NSaved=   1.
 NSaved= 1 IEnMin= 1 EnMin= -151.494784766416     IErMin= 1 ErrMin= 2.55D-02
 ErrMax= 2.55D-02 EMaxC= 1.00D-01 BMatC= 7.26D-02 BMatP= 7.26D-02
 IDIUse=3 WtCom= 7.45D-01 WtEn= 2.55D-01
 Coeff-Com:  0.100D+01
 Coeff-En:   0.100D+01
 Coeff:      0.100D+01
 Gap=     0.370 Goal=   None    Shift=    0.000
 GapD=    0.370 DampG=1.000 DampE=0.500 DampFc=0.5000 IDamp=-1.
 Damping current iteration by 5.00D-01
 RMSDP=3.09D-03 MaxDP=3.92D-02              OVMax= 7.53D-02

 Cycle   2  Pass 0  IDiag  1:
 E= -151.512109024657     Delta-E=       -0.017324258241 Rises=F Damp=T
 DIIS: error= 1.03D-02 at cycle   2 NSaved=   2.
 NSaved= 2 IEnMin= 2 EnMin= -151.512109024657     IErMin= 2 ErrMin= 1.03D-02
 ErrMax= 1.03D-02 EMaxC= 1.00D-01 BMatC= 8.80D-03 BMatP= 7.26D-02
 IDIUse=3 WtCom= 8.97D-01 WtEn= 1.03D-01
 Coeff-Com: -0.202D+00 0.120D+01
 Coeff-En:   0.000D+00 0.100D+01
 Coeff:     -0.182D+00 0.118D+01
 Gap=     0.395 Goal=   None    Shift=    0.000
 RMSDP=7.55D-04 MaxDP=1.17D-02 DE=-1.73D-02 OVMax= 4.34D-02

 Cycle   3  Pass 0  IDiag  1:
 E= -151.528112649223     Delta-E=       -0.016003624565 Rises=F Damp=F
 DIIS: error= 3.81D-03 at cycle   3 NSaved=   3.
 NSaved= 3 IEnMin= 3 EnMin= -151.528112649223     IErMin= 3 ErrMin= 3.81D-03
 ErrMax= 3.81D-03 EMaxC= 1.00D-01 BMatC= 1.69D-03 BMatP= 8.80D-03
 IDIUse=3 WtCom= 9.62D-01 WtEn= 3.81D-02
 Coeff-Com: -0.145D+00 0.397D+00 0.749D+00
 Coeff-En:   0.000D+00 0.000D+00 0.100D+01
 Coeff:     -0.140D+00 0.381D+00 0.758D+00
 Gap=     0.383 Goal=   None    Shift=    0.000
 RMSDP=2.75D-04 MaxDP=4.69D-03 DE=-1.60D-02 OVMax= 8.39D-03

 Cycle   4  Pass 0  IDiag  1:
 E= -151.529207595207     Delta-E=       -0.001094945984 Rises=F Damp=F
 DIIS: error= 5.77D-04 at cycle   4 NSaved=   4.
 NSaved= 4 IEnMin= 4 EnMin= -151.529207595207     IErMin= 4 ErrMin= 5.77D-04
 ErrMax= 5.77D-04 EMaxC= 1.00D-01 BMatC= 3.16D-05 BMatP= 1.69D-03
 IDIUse=3 WtCom= 9.94D-01 WtEn= 5.77D-03
 Coeff-Com: -0.197D-01 0.371D-01 0.171D+00 0.812D+00
 Coeff-En:   0.000D+00 0.000D+00 0.000D+00 0.100D+01
 Coeff:     -0.195D-01 0.369D-01 0.170D+00 0.813D+00
 Gap=     0.384 Goal=   None    Shift=    0.000
 RMSDP=3.13D-05 MaxDP=6.80D-04 DE=-1.09D-03 OVMax= 9.46D-04

 Cycle   5  Pass 0  IDiag  1:
 E= -151.529226067260     Delta-E=       -0.000018472053 Rises=F Damp=F
 DIIS: error= 6.02D-05 at cycle   5 NSaved=   5.
 NSaved= 5 IEnMin= 5 EnMin= -151.529226067260     IErMin= 5 ErrMin= 6.02D-05
 ErrMax= 6.02D-05 EMaxC= 1.00D-01 BMatC= 4.51D-07 BMatP= 3.16D-05
 IDIUse=1 WtCom= 1.00D+00 WtEn= 0.00D+00
 Coeff-Com: -0.236D-02 0.354D-02 0.253D-01 0.149D+00 0.824D+00
 Coeff:     -0.236D-02 0.354D-02 0.253D-01 0.149D+00 0.824D+00
 Gap=     0.384 Goal=   None    Shift=    0.000
 RMSDP=7.16D-06 MaxDP=1.61D-04 DE=-1.85D-05 OVMax= 2.40D-04

 Initial convergence to 1.0D-05 achieved.  Increase integral accuracy.
 Cycle   6  Pass 1  IDiag  1:
 E= -151.529236866251     Delta-E=       -0.000010798991 Rises=F Damp=F
 DIIS: error= 8.24D-05 at cycle   1 NSaved=   1.
 NSaved= 1 IEnMin= 1 EnMin= -151.529236866251     IErMin= 1 ErrMin= 8.24D-05
 ErrMax= 8.24D-05 EMaxC= 1.00D-01 BMatC= 1.46D-06 BMatP= 1.46D-06
 IDIUse=1 WtCom= 1.00D+00 WtEn= 0.00D+00
 Coeff-Com:  0.100D+01
 Coeff:      0.100D+01
 Gap=     0.384 Goal=   None    Shift=    0.000
 RMSDP=7.16D-06 MaxDP=1.61D-04 DE=-1.08D-05 OVMax= 2.59D-04

 Cycle   7  Pass 1  IDiag  1:
 E= -151.529237290237     Delta-E=       -0.000000423986 Rises=F Damp=F
 DIIS: error= 7.74D-05 at cycle   2 NSaved=   2.
 NSaved= 2 IEnMin= 2 EnMin= -151.529237290237     IErMin= 2 ErrMin= 7.74D-05
 ErrMax= 7.74D-05 EMaxC= 1.00D-01 BMatC= 5.39D-07 BMatP= 1.46D-06
 IDIUse=1 WtCom= 1.00D+00 WtEn= 0.00D+00
 Coeff-Com:  0.328D+00 0.672D+00
 Coeff:      0.328D+00 0.672D+00
 Gap=     0.384 Goal=   None    Shift=    0.000
 RMSDP=5.81D-06 MaxDP=1.34D-04 DE=-4.24D-07 OVMax= 2.24D-04

 Cycle   8  Pass 1  IDiag  1:
 E= -151.529237519582     Delta-E=       -0.000000229345 Rises=F Damp=F
 DIIS: error= 4.27D-05 at cycle   3 NSaved=   3.
 NSaved= 3 IEnMin= 3 EnMin= -151.529237519582     IErMin= 3 ErrMin= 4.27D-05
 ErrMax= 4.27D-05 EMaxC= 1.00D-01 BMatC= 1.73D-07 BMatP= 5.39D-07
 IDIUse=1 WtCom= 1.00D+00 WtEn= 0.00D+00
 Coeff-Com: -0.336D-01 0.357D+00 0.677D+00
 Coeff:     -0.336D-01 0.357D+00 0.677D+00
 Gap=     0.384 Goal=   None    Shift=    0.000
 RMSDP=2.18D-06 MaxDP=4.83D-05 DE=-2.29D-07 OVMax= 7.92D-05

 Cycle   9  Pass 1  IDiag  1:
 E= -151.529237626826     Delta-E=       -0.000000107244 Rises=F Damp=F
 DIIS: error= 1.45D-06 at cycle   4 NSaved=   4.
 NSaved= 4 IEnMin= 4 EnMin= -151.529237626826     IErMin= 4 ErrMin= 1.45D-06
 ErrMax= 1.45D-06 EMaxC= 1.00D-01 BMatC= 1.82D-10 BMatP= 1.73D-07
 IDIUse=1 WtCom= 1.00D+00 WtEn= 0.00D+00
 Coeff-Com: -0.297D-02 0.889D-02 0.251D-01 0.969D+00
 Coeff:     -0.297D-02 0.889D-02 0.251D-01 0.969D+00
 Gap=     0.384 Goal=   None    Shift=    0.000
 RMSDP=2.73D-07 MaxDP=4.09D-06 DE=-1.07D-07 OVMax= 1.05D-05

 Cycle  10  Pass 1  IDiag  1:
 E= -151.529237627121     Delta-E=       -0.000000000294 Rises=F Damp=F
 DIIS: error= 8.84D-07 at cycle   5 NSaved=   5.
 NSaved= 5 IEnMin= 5 EnMin= -151.529237627121     IErMin= 5 ErrMin= 8.84D-07
 ErrMax= 8.84D-07 EMaxC= 1.00D-01 BMatC= 7.12D-11 BMatP= 1.82D-10
 IDIUse=1 WtCom= 1.00D+00 WtEn= 0.00D+00
 Coeff-Com:  0.103D-02-0.204D-01-0.357D-01 0.329D+00 0.726D+00
 Coeff:      0.103D-02-0.204D-01-0.357D-01 0.329D+00 0.726D+00
 Gap=     0.384 Goal=   None    Shift=    0.000
 RMSDP=1.06D-07 MaxDP=1.92D-06 DE=-2.94D-10 OVMax= 4.66D-06

 Cycle  11  Pass 1  IDiag  1:
 E= -151.529237627197     Delta-E=       -0.000000000076 Rises=F Damp=F
 DIIS: error= 3.01D-07 at cycle   6 NSaved=   6.
 NSaved= 6 IEnMin= 6 EnMin= -151.529237627197     IErMin= 6 ErrMin= 3.01D-07
 ErrMax= 3.01D-07 EMaxC= 1.00D-01 BMatC= 9.85D-12 BMatP= 7.12D-11
 IDIUse=1 WtCom= 1.00D+00 WtEn= 0.00D+00
 Coeff-Com:  0.774D-03-0.658D-02-0.133D-01-0.127D+00 0.204D+00 0.942D+00
 Coeff:      0.774D-03-0.658D-02-0.133D-01-0.127D+00 0.204D+00 0.942D+00
 Gap=     0.384 Goal=   None    Shift=    0.000
 RMSDP=8.02D-08 MaxDP=9.99D-07 DE=-7.60D-11 OVMax= 3.32D-06

 Cycle  12  Pass 1  IDiag  1:
 E= -151.529237627214     Delta-E=       -0.000000000018 Rises=F Damp=F
 DIIS: error= 6.86D-08 at cycle   7 NSaved=   7.
 NSaved= 7 IEnMin= 7 EnMin= -151.529237627214     IErMin= 7 ErrMin= 6.86D-08
 ErrMax= 6.86D-08 EMaxC= 1.00D-01 BMatC= 4.21D-13 BMatP= 9.85D-12
 IDIUse=1 WtCom= 1.00D+00 WtEn= 0.00D+00
 Coeff-Com: -0.165D-03 0.314D-02 0.557D-02-0.425D-01-0.656D-01-0.127D-01
 Coeff-Com:  0.111D+01
 Coeff:     -0.165D-03 0.314D-02 0.557D-02-0.425D-01-0.656D-01-0.127D-01
 Coeff:      0.111D+01
 Gap=     0.384 Goal=   None    Shift=    0.000
 RMSDP=2.45D-08 MaxDP=3.41D-07 DE=-1.78D-11 OVMax= 1.01D-06

 Cycle  13  Pass 1  IDiag  1:
 E= -151.529237627215     Delta-E=       -0.000000000001 Rises=F Damp=F
 DIIS: error= 9.00D-09 at cycle   8 NSaved=   8.
 NSaved= 8 IEnMin= 8 EnMin= -151.529237627215     IErMin= 8 ErrMin= 9.00D-09
 ErrMax= 9.00D-09 EMaxC= 1.00D-01 BMatC= 7.31D-15 BMatP= 4.21D-13
 IDIUse=1 WtCom= 1.00D+00 WtEn= 0.00D+00
 Coeff-Com: -0.285D-04 0.347D-03 0.666D-03 0.229D-02-0.425D-02-0.283D-01
 Coeff-Com:  0.468D-01 0.982D+00
 Coeff:     -0.285D-04 0.347D-03 0.666D-03 0.229D-02-0.425D-02-0.283D-01
 Coeff:      0.468D-01 0.982D+00
 Gap=     0.384 Goal=   None    Shift=    0.000
 RMSDP=4.09D-09 MaxDP=6.94D-08 DE=-6.82D-13 OVMax= 8.39D-08

 SCF Done:  E(RM062X) =  -151.529237627     A.U. after   13 cycles
             Convg  =    0.4089D-08             -V/T =  2.0020
 KE= 1.512276755325D+02 PE=-4.368008486755D+02 EE= 9.507733065487D+01
 Leave Link  502 at Tue Jun 12 15:55:54 2018, MaxMem=  671088640 cpu:     153.3
 (Enter /shared/apps/gaussian/G09_LINUX_LINDA/g09/l601.exe)
 Copying SCF densities to generalized density rwf, IOpCl= 0 IROHF=0.

 **********************************************************************

            Population analysis using the SCF density.

 **********************************************************************

 Orbital symmetries:
       Occupied  (A) (A) (A) (A) (A) (A) (A) (A) (A)
       Virtual   (A) (A) (A) (A) (A) (A) (A) (A) (A) (A) (A) (A)
                 (A) (A) (A) (A) (A) (A) (A) (A) (A) (A) (A) (A)
                 (A) (A) (A) (A) (A) (A) (A) (A) (A) (A) (A) (A)
                 (A) (A) (A) (A) (A) (A) (A) (A) (A) (A) (A) (A)
                 (A) (A) (A) (A) (A) (A) (A) (A) (A) (A) (A) (A)
                 (A) (A) (A) (A) (A) (A) (A) (A) (A) (A) (A) (A)
                 (A) (A) (A) (A) (A)
 The electronic state is 1-A.
 Alpha  occ. eigenvalues --  -19.67910 -19.67593  -1.30515  -0.98992  -0.64203
 Alpha  occ. eigenvalues --   -0.60285  -0.53112  -0.40501  -0.32640
 Alpha virt. eigenvalues --    0.05761   0.06644   0.13100   0.16271   0.17985
 Alpha virt. eigenvalues --    0.20599   0.22073   0.23455   0.24961   0.26405
 Alpha virt. eigenvalues --    0.34478   0.48855   0.49762   0.67733   0.71327
 Alpha virt. eigenvalues --    0.76815   0.80805   0.94657   0.98417   0.99396
 Alpha virt. eigenvalues --    1.07091   1.11435   1.11703   1.31792   1.33316
 Alpha virt. eigenvalues --    1.37228   1.41939   1.56735   1.63216   1.75951
 Alpha virt. eigenvalues --    1.83904   2.04750   2.14661   2.23208   2.28799
 Alpha virt. eigenvalues --    2.32991   2.54424   2.63486   2.66163   3.57929
 Alpha virt. eigenvalues --    3.64321   3.65493   3.91672   4.02662   4.09669
 Alpha virt. eigenvalues --    4.51227   4.69243   4.73908   4.82466   4.88710
 Alpha virt. eigenvalues --    5.07096   5.10881   5.14226   5.15644   5.21609
 Alpha virt. eigenvalues --    5.23551   5.36679   5.40228   5.63546   5.70582
 Alpha virt. eigenvalues --    6.36944   6.40496   6.84596   6.85649   6.86959
 Alpha virt. eigenvalues --    6.91802   6.93209   6.95840   7.01319   7.17099
 Alpha virt. eigenvalues --    7.29649   7.54573   7.59411   7.87700   7.89543
 Alpha virt. eigenvalues --   49.98725  49.99708
          Condensed to atoms (all electrons):
              1          2          3          4
     1  O    8.015126   0.084039   0.238512  -0.052124
     2  O    0.084039   8.000976  -0.046857   0.239313
     3  H    0.238512  -0.046857   0.518999   0.008901
     4  H   -0.052124   0.239313   0.008901   0.521333
 Mulliken atomic charges:
              1
     1  O   -0.285553
     2  O   -0.277470
     3  H    0.280446
     4  H    0.282577
 Sum of Mulliken atomic charges =   0.00000
 Mulliken charges with hydrogens summed into heavy atoms:
              1
     1  O   -0.005107
     2  O    0.005107
 Sum of Mulliken charges with hydrogens summed into heavy atoms =   0.00000
 Electronic spatial extent (au):  <R**2>=             61.9993
 Charge=              0.0000 electrons
 Dipole moment (field-independent basis, Debye):
    X=              0.0669    Y=              0.0551    Z=              0.9537  Tot=              0.9576
 Quadrupole moment (field-independent basis, Debye-Ang):
   XX=             -9.0322   YY=            -10.6529   ZZ=            -12.7237
   XY=             -3.9577   XZ=              0.0688   YZ=              0.0120
 Traceless Quadrupole moment (field-independent basis, Debye-Ang):
   XX=              1.7707   YY=              0.1501   ZZ=             -1.9208
   XY=             -3.9577   XZ=              0.0688   YZ=              0.0120
 Octapole moment (field-independent basis, Debye-Ang**2):
  XXX=              0.4651  YYY=              0.1229  ZZZ=              0.3842  XYY=             -0.1191
  XXY=             -0.0300  XXZ=              1.6470  XZZ=              0.0198  YZZ=              0.0037
  YYZ=              0.4578  XYZ=             -0.8641
 Hexadecapole moment (field-independent basis, Debye-Ang**3):
 XXXX=            -35.7306 YYYY=            -12.3546 ZZZZ=            -11.0655 XXXY=             -6.4352
 XXXZ=              0.1843 YYYX=             -3.4373 YYYZ=              0.0363 ZZZX=              0.0486
 ZZZY=              0.0046 XXYY=             -7.5834 XXZZ=             -9.9307 YYZZ=             -3.9770
 XXYZ=             -0.0292 YYXZ=             -0.0013 ZZXY=             -0.9077
 N-N= 3.896660486092D+01 E-N=-4.368008484381D+02  KE= 1.512276755325D+02
 No NMR shielding tensors so no spin-rotation constants.
 Leave Link  601 at Tue Jun 12 15:55:55 2018, MaxMem=  671088640 cpu:       7.9
 (Enter /shared/apps/gaussian/G09_LINUX_LINDA/g09/l701.exe)
 Compute integral first derivatives.
 ... and contract with generalized density number  0.
 Leave Link  701 at Tue Jun 12 15:55:56 2018, MaxMem=  671088640 cpu:      12.3
 (Enter /shared/apps/gaussian/G09_LINUX_LINDA/g09/l702.exe)
 L702 exits ... SP integral derivatives will be done elsewhere.
 Leave Link  702 at Tue Jun 12 15:55:57 2018, MaxMem=  671088640 cpu:       0.3
 (Enter /shared/apps/gaussian/G09_LINUX_LINDA/g09/l703.exe)
 Compute integral first derivatives, UseDBF=F ICtDFT=           0.
 Integral derivatives from FoFDir, PRISM(SPDF).
 Calling FoFJK, ICntrl=      2127 FMM=F ISym2X=0 I1Cent= 0 IOpClX= 0 NMat=1 NMatS=1 NMatT=0.
 FoFCou: FMM=F IPFlag=           0 FMFlag=      100000 FMFlg1=         800
         NFxFlg=           0 DoJE=F BraDBF=F KetDBF=F FulRan=T
         Omega=  0.000000  0.000000  1.000000  0.000000  0.000000 ICntrl=    2127 IOpCl=  0
         NMat0=    1 NMatS0=    1 NMatT0=    0 NMatD0=    1 NMtDS0=    0 NMtDT0=    0
         I1Cent=           0 NGrid=           0.
 Symmetry not used in FoFCou.
 Leave Link  703 at Tue Jun 12 15:55:59 2018, MaxMem=  671088640 cpu:      23.7
 (Enter /shared/apps/gaussian/G09_LINUX_LINDA/g09/l716.exe)
 Dipole        = 2.63145836D-02 2.16725155D-02 3.75200675D-01
 ***** Axes restored to original set *****
 -------------------------------------------------------------------
 Center     Atomic                   Forces (Hartrees/Bohr)
 Number     Number              X              Y              Z
 -------------------------------------------------------------------
      1        8           0.086122579   -0.066791584    0.002594883
      2        8          -0.086014328    0.055595103   -0.007405979
      3        1          -0.032780671    0.001860159    0.001208698
      4        1           0.032672419    0.009336323    0.003602398
 -------------------------------------------------------------------
 Cartesian Forces:  Max     0.086122579 RMS     0.045346997
 Leave Link  716 at Tue Jun 12 15:55:59 2018, MaxMem=  671088640 cpu:       0.5
 (Enter /shared/apps/gaussian/G09_LINUX_LINDA/g09/l103.exe)

 GradGradGradGradGradGradGradGradGradGradGradGradGradGradGradGradGradGrad
 Berny optimization.
 Internal  Forces:  Max     0.081126421 RMS     0.041128235
 Search for a local minimum.
 Step number   1 out of a maximum of   20
 All quantities printed in internal units (Hartrees-Bohrs-Radians)
 Swaping is turned off.
 Second derivative matrix not updated -- first step.
 The second derivative matrix:
                          R1        R2        R3        A1        A2
           R1           0.63473
           R2           0.00000   0.49696
           R3           0.00000   0.00000   0.48404
           A1           0.00000   0.00000   0.00000   0.16000
           A2           0.00000   0.00000   0.00000   0.00000   0.16000
           D1           0.00000   0.00000   0.00000   0.00000   0.00000
                          D1
           D1           0.02434
 ITU=  0
     Eigenvalues ---    0.02434   0.16000   0.16000   0.48404   0.49696
     Eigenvalues ---    0.63473
 Quadratic step=4.088D-01 exceeds max=3.000D-01 adjusted using Lamda=-2.675D-02.
 Angle between NR and scaled steps=  16.06 degrees.
 Angle between quadratic step and forces=  37.95 degrees.
 Linear search not attempted -- option 19 set.
 Iteration  1 RMS(Cart)=  0.12321479 RMS(Int)=  0.01023539
 Iteration  2 RMS(Cart)=  0.00917880 RMS(Int)=  0.00000975
 Iteration  3 RMS(Cart)=  0.00000801 RMS(Int)=  0.00000000
 Iteration  4 RMS(Cart)=  0.00000000 RMS(Int)=  0.00000000
 Variable       Old X    -DE/DX   Delta X   Delta X   Delta X     New X
                                 (Linear)    (Quad)   (Total)
    R1        2.48293   0.08113   0.00000   0.12264   0.12264   2.60558
    R2        1.86873  -0.02626   0.00000  -0.05014  -0.05014   1.81859
    R3        1.88211  -0.03176   0.00000  -0.06219  -0.06219   1.81992
    A1        1.95382  -0.03621   0.00000  -0.19390  -0.19390   1.75992
    A2        1.88612  -0.02269   0.00000  -0.12153  -0.12153   1.76459
    D1        2.56860  -0.00655   0.00000  -0.12815  -0.12815   2.44045
         Item               Value     Threshold  Converged?
 Maximum Force            0.081126     0.000002     NO 
 RMS     Force            0.041128     0.000001     NO 
 Maximum Displacement     0.196059     0.000006     NO 
 RMS     Displacement     0.127537     0.000004     NO 
 Predicted change in Energy=-1.313645D-02
 GradGradGradGradGradGradGradGradGradGradGradGradGradGradGradGradGradGrad

 Leave Link  103 at Tue Jun 12 15:56:01 2018, MaxMem=  671088640 cpu:      18.6
 (Enter /shared/apps/gaussian/G09_LINUX_LINDA/g09/l202.exe)
                          Input orientation:                          
 ---------------------------------------------------------------------
 Center     Atomic      Atomic             Coordinates (Angstroms)
 Number     Number       Type             X           Y           Z
 ---------------------------------------------------------------------
      1          8           0        0.542577   -0.417681    0.185313
      2          8           0       -0.541605    0.432917    0.138919
      3          1           0        1.234050    0.151168   -0.167394
      4          1           0       -1.235022   -0.166404   -0.156838
 ---------------------------------------------------------------------
                    Distance matrix (angstroms):
                    1          2          3          4
     1  O    0.000000
     2  O    1.378811   0.000000
     3  H    0.962355   1.823777   0.000000
     4  H    1.827585   0.963060   2.489434   0.000000
 Stoichiometry    H2O2
 Framework group  C1[X(H2O2)]
 Deg. of freedom     6
 Full point group                 C1      NOp   1
 Largest Abelian subgroup         C1      NOp   1
 Largest concise Abelian subgroup C1      NOp   1
                         Standard orientation:                         
 ---------------------------------------------------------------------
 Center     Atomic      Atomic             Coordinates (Angstroms)
 Number     Number       Type             X           Y           Z
 ---------------------------------------------------------------------
      1          8           0       -0.676636   -0.133425   -0.035934
      2          8           0        0.676133    0.133288   -0.036196
      3          1           0       -1.025813    0.702618    0.288463
      4          1           0        1.029830   -0.701523    0.288572
 ---------------------------------------------------------------------
 Rotational constants (GHZ):    310.3020914     29.5579643     27.5756163
 Leave Link  202 at Tue Jun 12 15:56:01 2018, MaxMem=  671088640 cpu:       0.8
 (Enter /shared/apps/gaussian/G09_LINUX_LINDA/g09/l301.exe)
 Standard basis: 6-311+G(2df,2p) (5D, 7F)
 Ernie: Thresh=  0.10000D-02 Tol=  0.10000D-05 Strict=F.
 There are    86 symmetry adapted basis functions of A   symmetry.
 Integral buffers will be    131072 words long.
 Raffenetti 2 integral format.
 Two-electron integral symmetry is turned on.
    86 basis functions,   126 primitive gaussians,    96 cartesian basis functions
     9 alpha electrons        9 beta electrons
       nuclear repulsion energy        38.2077375605 Hartrees.
 IExCor= 4336 DFT=T Ex+Corr=M062X ExCW=0 ScaHFX=  0.540000
 ScaDFX=  1.000000  1.000000  1.000000  1.000000 ScalE2=  1.000000  1.000000
 IRadAn=      0 IRanWt=     -1 IRanGd=            0 ICorTp=0
 NAtoms=    4 NActive=    4 NUniq=    4 SFac= 1.00D+00 NAtFMM=   50 NAOKFM=F Big=F
 Leave Link  301 at Tue Jun 12 15:56:01 2018, MaxMem=  671088640 cpu:       1.0
 (Enter /shared/apps/gaussian/G09_LINUX_LINDA/g09/l302.exe)
 NPDir=0 NMtPBC=     1 NCelOv=     1 NCel=       1 NClECP=     1 NCelD=      1
         NCelK=      1 NCelE2=     1 NClLst=     1 CellRange=     0.0.
 One-electron integrals computed using PRISM.
 NBasis=    86 RedAO= T  NBF=    86
 NBsUse=    86 1.00D-06 NBFU=    86
 Precomputing XC quadrature grid using
 IXCGrd= 2 IRadAn=           0 IRanWt=          -1 IRanGd=           0 AccXCQ= 0.00D+00.
 NRdTot=     252 NPtTot=       31844 NUsed=       33673 NTot=       33705
 NSgBfM=    96    96    96    96    96 NAtAll=     4     4.
 Leave Link  302 at Tue Jun 12 15:56:02 2018, MaxMem=  671088640 cpu:       7.6
 (Enter /shared/apps/gaussian/G09_LINUX_LINDA/g09/l303.exe)
 DipDrv:  MaxL=1.
 Leave Link  303 at Tue Jun 12 15:56:03 2018, MaxMem=  671088640 cpu:       3.1
 (Enter /shared/apps/gaussian/G09_LINUX_LINDA/g09/l401.exe)
 Initial guess read from the read-write file.
 B after Tr=     0.000000    0.000000    0.000000
         Rot=    1.000000    0.000000    0.000000    0.000000 Ang=   0.00 deg.
 Guess basis will be translated and rotated to current coordinates.
 Initial guess orbital symmetries:
       Occupied  (A) (A) (A) (A) (A) (A) (A) (A) (A)
       Virtual   (A) (A) (A) (A) (A) (A) (A) (A) (A) (A) (A) (A)
                 (A) (A) (A) (A) (A) (A) (A) (A) (A) (A) (A) (A)
                 (A) (A) (A) (A) (A) (A) (A) (A) (A) (A) (A) (A)
                 (A) (A) (A) (A) (A) (A) (A) (A) (A) (A) (A) (A)
                 (A) (A) (A) (A) (A) (A) (A) (A) (A) (A) (A) (A)
                 (A) (A) (A) (A) (A) (A) (A) (A) (A) (A) (A) (A)
                 (A) (A) (A) (A) (A)
 The electronic state of the initial guess is 1-A.
 Generating alternative initial guess.
 Harris functional with IExCor= 1009 diagonalized for initial guess.
 ExpMin= 8.45D-02 ExpMax= 8.59D+03 ExpMxC= 1.30D+03 IAcc=2 IRadAn=         0 AccDes= 0.00D+00
 HarFok:  IExCor= 1009 AccDes= 0.00D+00 IRadAn=         0 IDoV= 1
 ScaDFX=  1.000000  1.000000  1.000000  1.000000
 FoFCou: FMM=F IPFlag=           0 FMFlag=      100000 FMFlg1=           0
         NFxFlg=           0 DoJE=T BraDBF=F KetDBF=T FulRan=T
         Omega=  0.000000  0.000000  1.000000  0.000000  0.000000 ICntrl=     500 IOpCl=  0
         NMat0=    1 NMatS0=    1 NMatT0=    0 NMatD0=    1 NMtDS0=    0 NMtDT0=    0
         I1Cent=           4 NGrid=           0.
 Petite list used in FoFCou.
 Harris En= -151.472551533348    
 Leave Link  401 at Tue Jun 12 15:56:06 2018, MaxMem=  671088640 cpu:      30.7
 (Enter /shared/apps/gaussian/G09_LINUX_LINDA/g09/l502.exe)
 Closed shell SCF:
 Requested convergence on RMS density matrix=1.00D-08 within 128 cycles.
 Requested convergence on MAX density matrix=1.00D-06.
 Requested convergence on             energy=1.00D-06.
 No special actions if energy rises.
 Using DIIS extrapolation, IDIIS=  1040.
 Integral symmetry usage will be decided dynamically.
        33624 words used for storage of precomputed grid.
 Keep R1 ints in memory in canonical form, NReq=12863544.
 IEnd=       82034 IEndB=       82034 NGot=   671088640 MDV=   660191035
 LenX=   660191035 LenY=   660181378
 Symmetry not used in FoFDir.
 MinBra= 0 MaxBra= 3 Meth= 1.
 IRaf=       0 NMat=   1 IRICut=       1 DoRegI=T DoRafI=F ISym2E= 0 JSym2E=0.
 Integral accuracy reduced to 1.0D-05 until final iterations.

 Cycle   1  Pass 0  IDiag  1:
 E= -149.338684441819    
 DIIS: error= 1.14D-01 at cycle   1 NSaved=   1.
 NSaved= 1 IEnMin= 1 EnMin= -149.338684441819     IErMin= 1 ErrMin= 1.14D-01
 ErrMax= 1.14D-01 EMaxC= 1.00D-01 BMatC= 1.13D+00 BMatP= 1.13D+00
 IDIUse=3 WtCom= 0.00D+00 WtEn= 1.00D+00
 Coeff-Com:  0.100D+01
 Coeff-En:   0.100D+01
 Coeff:      0.100D+01
 Recover alternate guess density for next cycle.
 RMSDP=1.78D-02 MaxDP=2.68D-01              OVMax= 0.00D+00

 Cycle   2  Pass 0  IDiag  1:
 E= -151.512000535577     Delta-E=       -2.173316093758 Rises=F Damp=F
 DIIS: error= 2.62D-02 at cycle   2 NSaved=   2.
 NSaved= 2 IEnMin= 2 EnMin= -151.512000535577     IErMin= 2 ErrMin= 2.62D-02
 ErrMax= 2.62D-02 EMaxC= 1.00D-01 BMatC= 6.70D-02 BMatP= 1.13D+00
 IDIUse=3 WtCom= 7.38D-01 WtEn= 2.62D-01
 Coeff-Com: -0.480D-01 0.105D+01
 Coeff-En:   0.000D+00 0.100D+01
 Coeff:     -0.354D-01 0.104D+01
 Gap=     0.448 Goal=   None    Shift=    0.000
 RMSDP=2.69D-03 MaxDP=3.55D-02 DE=-2.17D+00 OVMax= 6.72D-02

 Cycle   3  Pass 0  IDiag  1:
 E= -151.526703072429     Delta-E=       -0.014702536852 Rises=F Damp=F
 DIIS: error= 1.96D-02 at cycle   3 NSaved=   3.
 NSaved= 3 IEnMin= 3 EnMin= -151.526703072429     IErMin= 3 ErrMin= 1.96D-02
 ErrMax= 1.96D-02 EMaxC= 1.00D-01 BMatC= 2.44D-02 BMatP= 6.70D-02
 IDIUse=3 WtCom= 8.04D-01 WtEn= 1.96D-01
 Coeff-Com:  0.262D-01 0.313D+00 0.661D+00
 Coeff-En:   0.000D+00 0.298D+00 0.702D+00
 Coeff:      0.211D-01 0.310D+00 0.669D+00
 Gap=     0.421 Goal=   None    Shift=    0.000
 RMSDP=1.28D-03 MaxDP=2.71D-02 DE=-1.47D-02 OVMax= 3.55D-02

 Cycle   4  Pass 0  IDiag  1:
 E= -151.541710908520     Delta-E=       -0.015007836090 Rises=F Damp=F
 DIIS: error= 3.50D-03 at cycle   4 NSaved=   4.
 NSaved= 4 IEnMin= 4 EnMin= -151.541710908520     IErMin= 4 ErrMin= 3.50D-03
 ErrMax= 3.50D-03 EMaxC= 1.00D-01 BMatC= 1.35D-03 BMatP= 2.44D-02
 IDIUse=3 WtCom= 9.65D-01 WtEn= 3.50D-02
 Coeff-Com:  0.460D-03 0.338D-01 0.208D+00 0.758D+00
 Coeff-En:   0.000D+00 0.000D+00 0.000D+00 0.100D+01
 Coeff:      0.444D-03 0.326D-01 0.201D+00 0.766D+00
 Gap=     0.409 Goal=   None    Shift=    0.000
 RMSDP=2.52D-04 MaxDP=4.47D-03 DE=-1.50D-02 OVMax= 7.83D-03

 Cycle   5  Pass 0  IDiag  1:
 E= -151.542633927674     Delta-E=       -0.000923019154 Rises=F Damp=F
 DIIS: error= 6.85D-04 at cycle   5 NSaved=   5.
 NSaved= 5 IEnMin= 5 EnMin= -151.542633927674     IErMin= 5 ErrMin= 6.85D-04
 ErrMax= 6.85D-04 EMaxC= 1.00D-01 BMatC= 2.78D-05 BMatP= 1.35D-03
 IDIUse=3 WtCom= 9.93D-01 WtEn= 6.85D-03
 Coeff-Com: -0.247D-03-0.308D-02 0.246D-01 0.198D+00 0.781D+00
 Coeff-En:   0.000D+00 0.000D+00 0.000D+00 0.000D+00 0.100D+01
 Coeff:     -0.245D-03-0.306D-02 0.245D-01 0.196D+00 0.782D+00
 Gap=     0.410 Goal=   None    Shift=    0.000
 RMSDP=2.76D-05 MaxDP=6.11D-04 DE=-9.23D-04 OVMax= 9.09D-04

 Cycle   6  Pass 0  IDiag  1:
 E= -151.542650635909     Delta-E=       -0.000016708235 Rises=F Damp=F
 DIIS: error= 3.21D-05 at cycle   6 NSaved=   6.
 NSaved= 6 IEnMin= 6 EnMin= -151.542650635909     IErMin= 6 ErrMin= 3.21D-05
 ErrMax= 3.21D-05 EMaxC= 1.00D-01 BMatC= 1.23D-07 BMatP= 2.78D-05
 IDIUse=1 WtCom= 1.00D+00 WtEn= 0.00D+00
 Coeff-Com: -0.316D-04-0.170D-03-0.434D-02-0.233D-01-0.645D-01 0.109D+01
 Coeff:     -0.316D-04-0.170D-03-0.434D-02-0.233D-01-0.645D-01 0.109D+01
 Gap=     0.410 Goal=   None    Shift=    0.000
 RMSDP=5.76D-06 MaxDP=8.90D-05 DE=-1.67D-05 OVMax= 2.00D-04

 Initial convergence to 1.0D-05 achieved.  Increase integral accuracy.
 Cycle   7  Pass 1  IDiag  1:
 E= -151.542630035447     Delta-E=        0.000020600462 Rises=F Damp=F
 DIIS: error= 9.75D-05 at cycle   1 NSaved=   1.
 NSaved= 1 IEnMin= 1 EnMin= -151.542630035447     IErMin= 1 ErrMin= 9.75D-05
 ErrMax= 9.75D-05 EMaxC= 1.00D-01 BMatC= 1.13D-06 BMatP= 1.13D-06
 IDIUse=1 WtCom= 1.00D+00 WtEn= 0.00D+00
 Coeff-Com:  0.100D+01
 Coeff:      0.100D+01
 Gap=     0.410 Goal=   None    Shift=    0.000
 RMSDP=5.76D-06 MaxDP=8.90D-05 DE= 2.06D-05 OVMax= 1.59D-04

 Cycle   8  Pass 1  IDiag  1:
 E= -151.542630472767     Delta-E=       -0.000000437321 Rises=F Damp=F
 DIIS: error= 3.25D-05 at cycle   2 NSaved=   2.
 NSaved= 2 IEnMin= 2 EnMin= -151.542630472767     IErMin= 2 ErrMin= 3.25D-05
 ErrMax= 3.25D-05 EMaxC= 1.00D-01 BMatC= 1.19D-07 BMatP= 1.13D-06
 IDIUse=1 WtCom= 1.00D+00 WtEn= 0.00D+00
 Coeff-Com:  0.111D+00 0.889D+00
 Coeff:      0.111D+00 0.889D+00
 Gap=     0.410 Goal=   None    Shift=    0.000
 RMSDP=3.86D-06 MaxDP=9.55D-05 DE=-4.37D-07 OVMax= 1.49D-04

 Cycle   9  Pass 1  IDiag  1:
 E= -151.542630456980     Delta-E=        0.000000015787 Rises=F Damp=F
 DIIS: error= 3.78D-05 at cycle   3 NSaved=   3.
 NSaved= 3 IEnMin= 2 EnMin= -151.542630472767     IErMin= 2 ErrMin= 3.25D-05
 ErrMax= 3.78D-05 EMaxC= 1.00D-01 BMatC= 1.49D-07 BMatP= 1.19D-07
 IDIUse=1 WtCom= 1.00D+00 WtEn= 0.00D+00
 Coeff-Com: -0.299D-01 0.537D+00 0.493D+00
 Coeff:     -0.299D-01 0.537D+00 0.493D+00
 Gap=     0.410 Goal=   None    Shift=    0.000
 RMSDP=1.99D-06 MaxDP=3.78D-05 DE= 1.58D-08 OVMax= 8.16D-05

 Cycle  10  Pass 1  IDiag  1:
 E= -151.542630551962     Delta-E=       -0.000000094982 Rises=F Damp=F
 DIIS: error= 1.59D-06 at cycle   4 NSaved=   4.
 NSaved= 4 IEnMin= 4 EnMin= -151.542630551962     IErMin= 4 ErrMin= 1.59D-06
 ErrMax= 1.59D-06 EMaxC= 1.00D-01 BMatC= 2.91D-10 BMatP= 1.19D-07
 IDIUse=1 WtCom= 1.00D+00 WtEn= 0.00D+00
 Coeff-Com: -0.352D-02 0.116D-01 0.298D-01 0.962D+00
 Coeff:     -0.352D-02 0.116D-01 0.298D-01 0.962D+00
 Gap=     0.410 Goal=   None    Shift=    0.000
 RMSDP=3.71D-07 MaxDP=4.62D-06 DE=-9.50D-08 OVMax= 1.59D-05

 Cycle  11  Pass 1  IDiag  1:
 E= -151.542630552474     Delta-E=       -0.000000000512 Rises=F Damp=F
 DIIS: error= 1.11D-06 at cycle   5 NSaved=   5.
 NSaved= 5 IEnMin= 5 EnMin= -151.542630552474     IErMin= 5 ErrMin= 1.11D-06
 ErrMax= 1.11D-06 EMaxC= 1.00D-01 BMatC= 9.43D-11 BMatP= 2.91D-10
 IDIUse=1 WtCom= 1.00D+00 WtEn= 0.00D+00
 Coeff-Com:  0.194D-02-0.507D-01-0.402D-01 0.309D+00 0.780D+00
 Coeff:      0.194D-02-0.507D-01-0.402D-01 0.309D+00 0.780D+00
 Gap=     0.410 Goal=   None    Shift=    0.000
 RMSDP=1.63D-07 MaxDP=2.15D-06 DE=-5.12D-10 OVMax= 7.68D-06

 Cycle  12  Pass 1  IDiag  1:
 E= -151.542630552604     Delta-E=       -0.000000000130 Rises=F Damp=F
 DIIS: error= 3.50D-07 at cycle   6 NSaved=   6.
 NSaved= 6 IEnMin= 6 EnMin= -151.542630552604     IErMin= 6 ErrMin= 3.50D-07
 ErrMax= 3.50D-07 EMaxC= 1.00D-01 BMatC= 1.31D-11 BMatP= 9.43D-11
 IDIUse=1 WtCom= 1.00D+00 WtEn= 0.00D+00
 Coeff-Com:  0.117D-02-0.154D-01-0.164D-01-0.117D+00 0.200D+00 0.948D+00
 Coeff:      0.117D-02-0.154D-01-0.164D-01-0.117D+00 0.200D+00 0.948D+00
 Gap=     0.410 Goal=   None    Shift=    0.000
 RMSDP=9.75D-08 MaxDP=1.15D-06 DE=-1.30D-10 OVMax= 4.77D-06

 Cycle  13  Pass 1  IDiag  1:
 E= -151.542630552631     Delta-E=       -0.000000000027 Rises=F Damp=F
 DIIS: error= 8.87D-08 at cycle   7 NSaved=   7.
 NSaved= 7 IEnMin= 7 EnMin= -151.542630552631     IErMin= 7 ErrMin= 8.87D-08
 ErrMax= 8.87D-08 EMaxC= 1.00D-01 BMatC= 5.99D-13 BMatP= 1.31D-11
 IDIUse=1 WtCom= 1.00D+00 WtEn= 0.00D+00
 Coeff-Com: -0.129D-03 0.500D-02 0.355D-02-0.484D-01-0.654D-01 0.670D-01
 Coeff-Com:  0.104D+01
 Coeff:     -0.129D-03 0.500D-02 0.355D-02-0.484D-01-0.654D-01 0.670D-01
 Coeff:      0.104D+01
 Gap=     0.410 Goal=   None    Shift=    0.000
 RMSDP=2.76D-08 MaxDP=3.09D-07 DE=-2.71D-11 OVMax= 1.46D-06

 Cycle  14  Pass 1  IDiag  1:
 E= -151.542630552633     Delta-E=       -0.000000000002 Rises=F Damp=F
 DIIS: error= 1.22D-08 at cycle   8 NSaved=   8.
 NSaved= 8 IEnMin= 8 EnMin= -151.542630552633     IErMin= 8 ErrMin= 1.22D-08
 ErrMax= 1.22D-08 EMaxC= 1.00D-01 BMatC= 1.97D-14 BMatP= 5.99D-13
 IDIUse=1 WtCom= 1.00D+00 WtEn= 0.00D+00
 Coeff-Com: -0.478D-04 0.712D-03 0.806D-03 0.818D-02-0.677D-02-0.539D-01
 Coeff-Com: -0.305D-01 0.108D+01
 Coeff:     -0.478D-04 0.712D-03 0.806D-03 0.818D-02-0.677D-02-0.539D-01
 Coeff:     -0.305D-01 0.108D+01
 Gap=     0.410 Goal=   None    Shift=    0.000
 RMSDP=3.69D-09 MaxDP=3.38D-08 DE=-2.10D-12 OVMax= 1.93D-07

 SCF Done:  E(RM062X) =  -151.542630553     A.U. after   14 cycles
             Convg  =    0.3692D-08             -V/T =  2.0020
 KE= 1.512363359167D+02 PE=-4.352612879023D+02 EE= 9.427458387242D+01
 Leave Link  502 at Tue Jun 12 15:56:22 2018, MaxMem=  671088640 cpu:     155.9
 (Enter /shared/apps/gaussian/G09_LINUX_LINDA/g09/l701.exe)
 Compute integral first derivatives.
 ... and contract with generalized density number  0.
 Leave Link  701 at Tue Jun 12 15:56:23 2018, MaxMem=  671088640 cpu:      11.4
 (Enter /shared/apps/gaussian/G09_LINUX_LINDA/g09/l702.exe)
 L702 exits ... SP integral derivatives will be done elsewhere.
 Leave Link  702 at Tue Jun 12 15:56:23 2018, MaxMem=  671088640 cpu:       0.3
 (Enter /shared/apps/gaussian/G09_LINUX_LINDA/g09/l703.exe)
 Compute integral first derivatives, UseDBF=F ICtDFT=           0.
 Integral derivatives from FoFDir, PRISM(SPDF).
 Calling FoFJK, ICntrl=      2127 FMM=F ISym2X=0 I1Cent= 0 IOpClX= 0 NMat=1 NMatS=1 NMatT=0.
 FoFCou: FMM=F IPFlag=           0 FMFlag=      100000 FMFlg1=         800
         NFxFlg=           0 DoJE=F BraDBF=F KetDBF=F FulRan=T
         Omega=  0.000000  0.000000  1.000000  0.000000  0.000000 ICntrl=    2127 IOpCl=  0
         NMat0=    1 NMatS0=    1 NMatT0=    0 NMatD0=    1 NMtDS0=    0 NMtDT0=    0
         I1Cent=           0 NGrid=           0.
 Symmetry not used in FoFCou.
 Leave Link  703 at Tue Jun 12 15:56:25 2018, MaxMem=  671088640 cpu:      19.6
 (Enter /shared/apps/gaussian/G09_LINUX_LINDA/g09/l716.exe)
 Dipole        = 2.26963769D-03 4.13291625D-04 4.52816951D-01
 ***** Axes restored to original set *****
 -------------------------------------------------------------------
 Center     Atomic                   Forces (Hartrees/Bohr)
 Number     Number              X              Y              Z
 -------------------------------------------------------------------
      1        8           0.029473358   -0.016220075    0.001856248
      2        8          -0.030381708    0.016296334    0.000106625
      3        1           0.001519906   -0.003047585   -0.000929534
      4        1          -0.000611556    0.002971327   -0.001033339
 -------------------------------------------------------------------
 Cartesian Forces:  Max     0.030381708 RMS     0.013983853
 Leave Link  716 at Tue Jun 12 15:56:25 2018, MaxMem=  671088640 cpu:       0.4
 (Enter /shared/apps/gaussian/G09_LINUX_LINDA/g09/l103.exe)

 GradGradGradGradGradGradGradGradGradGradGradGradGradGradGradGradGradGrad
 Berny optimization.
 Using GDIIS optimizer.
 Internal  Forces:  Max     0.036304374 RMS     0.015183150
 Search for a local minimum.
 Step number   2 out of a maximum of   20
 All quantities printed in internal units (Hartrees-Bohrs-Radians)
 Swaping is turned off.
 Update second derivatives using D2CorX and points    1    2
 DE= -1.34D-02 DEPred=-1.31D-02 R= 1.02D+00
 SS=  1.41D+00  RLast= 3.00D-01 DXNew= 5.0454D-01 9.0105D-01
 Trust test= 1.02D+00 RLast= 3.00D-01 DXMaxT set to 5.05D-01
 The second derivative matrix:
                          R1        R2        R3        A1        A2
           R1           0.44933
           R2           0.03435   0.50040
           R3           0.04280   0.00340   0.48726
           A1           0.02155   0.01653   0.01875   0.20047
           A2           0.01102   0.01179   0.01345   0.02769   0.17888
           D1           0.00300   0.00118   0.00132   0.00329   0.00228
                          D1
           D1           0.02460
 ITU=  1  0
     Eigenvalues ---    0.02450   0.15991   0.21466   0.41284   0.49133
     Eigenvalues ---    0.53770
 DIIS coeff's:      1.15386     -0.15386
 Cosine:  1.000 >  0.970
 Length:  1.000
 GDIIS step was calculated using  2 of the last  2 vectors.
 Iteration  1 RMS(Cart)=  0.05375045 RMS(Int)=  0.00220006
 Iteration  2 RMS(Cart)=  0.00146401 RMS(Int)=  0.00000145
 Iteration  3 RMS(Cart)=  0.00000212 RMS(Int)=  0.00000000
 Iteration  4 RMS(Cart)=  0.00000000 RMS(Int)=  0.00000000
 Variable       Old X    -DE/DX   Delta X   Delta X   Delta X     New X
                                  (DIIS)     (GDIIS)  (Total)
    R1        2.60558   0.03630   0.01887   0.06277   0.08165   2.68722
    R2        1.81859  -0.00038  -0.00772   0.00052  -0.00719   1.81140
    R3        1.81992  -0.00110  -0.00957  -0.00087  -0.01044   1.80948
    A1        1.75992   0.00580  -0.02983   0.05064   0.02081   1.78073
    A2        1.76459   0.00478  -0.01870   0.04000   0.02130   1.78590
    D1        2.44045  -0.00271  -0.01972  -0.10410  -0.12381   2.31664
         Item               Value     Threshold  Converged?
 Maximum Force            0.036304     0.000002     NO 
 RMS     Force            0.015183     0.000001     NO 
 Maximum Displacement     0.057246     0.000006     NO 
 RMS     Displacement     0.053592     0.000004     NO 
 Predicted change in Energy=-1.767946D-03
 GradGradGradGradGradGradGradGradGradGradGradGradGradGradGradGradGradGrad

 Leave Link  103 at Tue Jun 12 15:56:27 2018, MaxMem=  671088640 cpu:      20.2
 (Enter /shared/apps/gaussian/G09_LINUX_LINDA/g09/l202.exe)
                          Input orientation:                          
 ---------------------------------------------------------------------
 Center     Atomic      Atomic             Coordinates (Angstroms)
 Number     Number       Type             X           Y           Z
 ---------------------------------------------------------------------
      1          8           0        0.572246   -0.412980    0.210700
      2          8           0       -0.571898    0.430176    0.164333
      3          1           0        1.243949    0.139441   -0.192368
      4          1           0       -1.244296   -0.156636   -0.182665
 ---------------------------------------------------------------------
                    Distance matrix (angstroms):
                    1          2          3          4
     1  O    0.000000
     2  O    1.422016   0.000000
     3  H    0.958549   1.873249   0.000000
     4  H    1.876240   0.957536   2.505817   0.000000
 Stoichiometry    H2O2
 Framework group  C1[X(H2O2)]
 Deg. of freedom     6
 Full point group                 C1      NOp   1
 Largest Abelian subgroup         C1      NOp   1
 Largest concise Abelian subgroup C1      NOp   1
                         Standard orientation:                         
 ---------------------------------------------------------------------
 Center     Atomic      Atomic             Coordinates (Angstroms)
 Number     Number       Type             X           Y           Z
 ---------------------------------------------------------------------
      1          8           0       -0.699653   -0.128074   -0.041476
      2          8           0        0.699180    0.127649   -0.041949
      3          1           0       -1.050586    0.681457    0.333120
      4          1           0        1.054369   -0.678058    0.334286
 ---------------------------------------------------------------------
 Rotational constants (GHZ):    315.8661590     27.6608643     26.1366426
 Leave Link  202 at Tue Jun 12 15:56:28 2018, MaxMem=  671088640 cpu:       0.7
 (Enter /shared/apps/gaussian/G09_LINUX_LINDA/g09/l301.exe)
 Standard basis: 6-311+G(2df,2p) (5D, 7F)
 Ernie: Thresh=  0.10000D-02 Tol=  0.10000D-05 Strict=F.
 There are    86 symmetry adapted basis functions of A   symmetry.
 Integral buffers will be    131072 words long.
 Raffenetti 2 integral format.
 Two-electron integral symmetry is turned on.
    86 basis functions,   126 primitive gaussians,    96 cartesian basis functions
     9 alpha electrons        9 beta electrons
       nuclear repulsion energy        37.3815126053 Hartrees.
 IExCor= 4336 DFT=T Ex+Corr=M062X ExCW=0 ScaHFX=  0.540000
 ScaDFX=  1.000000  1.000000  1.000000  1.000000 ScalE2=  1.000000  1.000000
 IRadAn=      0 IRanWt=     -1 IRanGd=            0 ICorTp=0
 NAtoms=    4 NActive=    4 NUniq=    4 SFac= 1.00D+00 NAtFMM=   50 NAOKFM=F Big=F
 Leave Link  301 at Tue Jun 12 15:56:28 2018, MaxMem=  671088640 cpu:       0.9
 (Enter /shared/apps/gaussian/G09_LINUX_LINDA/g09/l302.exe)
 NPDir=0 NMtPBC=     1 NCelOv=     1 NCel=       1 NClECP=     1 NCelD=      1
         NCelK=      1 NCelE2=     1 NClLst=     1 CellRange=     0.0.
 One-electron integrals computed using PRISM.
 NBasis=    86 RedAO= T  NBF=    86
 NBsUse=    86 1.00D-06 NBFU=    86
 Precomputing XC quadrature grid using
 IXCGrd= 2 IRadAn=           0 IRanWt=          -1 IRanGd=           0 AccXCQ= 0.00D+00.
 NRdTot=     252 NPtTot=       31844 NUsed=       33673 NTot=       33705
 NSgBfM=    96    96    96    96    96 NAtAll=     4     4.
 Leave Link  302 at Tue Jun 12 15:56:29 2018, MaxMem=  671088640 cpu:       8.0
 (Enter /shared/apps/gaussian/G09_LINUX_LINDA/g09/l303.exe)
 DipDrv:  MaxL=1.
 Leave Link  303 at Tue Jun 12 15:56:29 2018, MaxMem=  671088640 cpu:       3.2
 (Enter /shared/apps/gaussian/G09_LINUX_LINDA/g09/l401.exe)
 Initial guess read from the read-write file.
 B after Tr=     0.000000    0.000000    0.000000
         Rot=    1.000000    0.000000    0.000000    0.000000 Ang=   0.00 deg.
 Guess basis will be translated and rotated to current coordinates.
 Initial guess orbital symmetries:
       Occupied  (A) (A) (A) (A) (A) (A) (A) (A) (A)
       Virtual   (A) (A) (A) (A) (A) (A) (A) (A) (A) (A) (A) (A)
                 (A) (A) (A) (A) (A) (A) (A) (A) (A) (A) (A) (A)
                 (A) (A) (A) (A) (A) (A) (A) (A) (A) (A) (A) (A)
                 (A) (A) (A) (A) (A) (A) (A) (A) (A) (A) (A) (A)
                 (A) (A) (A) (A) (A) (A) (A) (A) (A) (A) (A) (A)
                 (A) (A) (A) (A) (A) (A) (A) (A) (A) (A) (A) (A)
                 (A) (A) (A) (A) (A)
 The electronic state of the initial guess is 1-A.
 Generating alternative initial guess.
 Harris functional with IExCor= 1009 diagonalized for initial guess.
 ExpMin= 8.45D-02 ExpMax= 8.59D+03 ExpMxC= 1.30D+03 IAcc=2 IRadAn=         0 AccDes= 0.00D+00
 HarFok:  IExCor= 1009 AccDes= 0.00D+00 IRadAn=         0 IDoV= 1
 ScaDFX=  1.000000  1.000000  1.000000  1.000000
 FoFCou: FMM=F IPFlag=           0 FMFlag=      100000 FMFlg1=           0
         NFxFlg=           0 DoJE=T BraDBF=F KetDBF=T FulRan=T
         Omega=  0.000000  0.000000  1.000000  0.000000  0.000000 ICntrl=     500 IOpCl=  0
         NMat0=    1 NMatS0=    1 NMatT0=    0 NMatD0=    1 NMtDS0=    0 NMtDT0=    0
         I1Cent=           4 NGrid=           0.
 Petite list used in FoFCou.
 Harris En= -151.475041645492    
 Leave Link  401 at Tue Jun 12 15:56:33 2018, MaxMem=  671088640 cpu:      33.7
 (Enter /shared/apps/gaussian/G09_LINUX_LINDA/g09/l502.exe)
 Closed shell SCF:
 Requested convergence on RMS density matrix=1.00D-08 within 128 cycles.
 Requested convergence on MAX density matrix=1.00D-06.
 Requested convergence on             energy=1.00D-06.
 No special actions if energy rises.
 Using DIIS extrapolation, IDIIS=  1040.
 Integral symmetry usage will be decided dynamically.
        33624 words used for storage of precomputed grid.
 Keep R1 ints in memory in canonical form, NReq=12863544.
 IEnd=       82034 IEndB=       82034 NGot=   671088640 MDV=   660191035
 LenX=   660191035 LenY=   660181378
 Symmetry not used in FoFDir.
 MinBra= 0 MaxBra= 3 Meth= 1.
 IRaf=       0 NMat=   1 IRICut=       1 DoRegI=T DoRafI=F ISym2E= 0 JSym2E=0.
 Integral accuracy reduced to 1.0D-05 until final iterations.

 Cycle   1  Pass 0  IDiag  1:
 E= -151.542433062063    
 DIIS: error= 3.06D-03 at cycle   1 NSaved=   1.
 NSaved= 1 IEnMin= 1 EnMin= -151.542433062063     IErMin= 1 ErrMin= 3.06D-03
 ErrMax= 3.06D-03 EMaxC= 1.00D-01 BMatC= 1.77D-03 BMatP= 1.77D-03
 IDIUse=3 WtCom= 9.69D-01 WtEn= 3.06D-02
 Coeff-Com:  0.100D+01
 Coeff-En:   0.100D+01
 Coeff:      0.100D+01
 Gap=     0.473 Goal=   None    Shift=    0.000
 GapD=    0.473 DampG=2.000 DampE=1.000 DampFc=2.0000 IDamp=-1.
 RMSDP=5.14D-04 MaxDP=6.21D-03              OVMax= 1.19D-02

 Cycle   2  Pass 0  IDiag  1:
 E= -151.544165492202     Delta-E=       -0.001732430139 Rises=F Damp=F
 DIIS: error= 5.48D-04 at cycle   2 NSaved=   2.
 NSaved= 2 IEnMin= 2 EnMin= -151.544165492202     IErMin= 2 ErrMin= 5.48D-04
 ErrMax= 5.48D-04 EMaxC= 1.00D-01 BMatC= 5.43D-05 BMatP= 1.77D-03
 IDIUse=3 WtCom= 9.95D-01 WtEn= 5.48D-03
 Coeff-Com: -0.688D-01 0.107D+01
 Coeff-En:   0.000D+00 0.100D+01
 Coeff:     -0.684D-01 0.107D+01
 Gap=     0.411 Goal=   None    Shift=    0.000
 RMSDP=1.15D-04 MaxDP=1.79D-03 DE=-1.73D-03 OVMax= 3.72D-03

 Cycle   3  Pass 0  IDiag  1:
 E= -151.544228231055     Delta-E=       -0.000062738853 Rises=F Damp=F
 DIIS: error= 4.81D-04 at cycle   3 NSaved=   3.
 NSaved= 3 IEnMin= 3 EnMin= -151.544228231055     IErMin= 3 ErrMin= 4.81D-04
 ErrMax= 4.81D-04 EMaxC= 1.00D-01 BMatC= 2.32D-05 BMatP= 5.43D-05
 IDIUse=3 WtCom= 9.95D-01 WtEn= 4.81D-03
 Coeff-Com: -0.565D-01 0.426D+00 0.631D+00
 Coeff-En:   0.000D+00 0.000D+00 0.100D+01
 Coeff:     -0.562D-01 0.424D+00 0.633D+00
 Gap=     0.410 Goal=   None    Shift=    0.000
 RMSDP=3.71D-05 MaxDP=7.02D-04 DE=-6.27D-05 OVMax= 1.24D-03

 Cycle   4  Pass 0  IDiag  1:
 E= -151.544244439783     Delta-E=       -0.000016208728 Rises=F Damp=F
 DIIS: error= 1.00D-04 at cycle   4 NSaved=   4.
 NSaved= 4 IEnMin= 4 EnMin= -151.544244439783     IErMin= 4 ErrMin= 1.00D-04
 ErrMax= 1.00D-04 EMaxC= 1.00D-01 BMatC= 1.16D-06 BMatP= 2.32D-05
 IDIUse=1 WtCom= 1.00D+00 WtEn= 0.00D+00
 Coeff-Com: -0.326D-02-0.358D-01 0.137D+00 0.902D+00
 Coeff:     -0.326D-02-0.358D-01 0.137D+00 0.902D+00
 Gap=     0.410 Goal=   None    Shift=    0.000
 RMSDP=1.80D-05 MaxDP=2.42D-04 DE=-1.62D-05 OVMax= 5.82D-04

 Cycle   5  Pass 0  IDiag  1:
 E= -151.544245769440     Delta-E=       -0.000001329657 Rises=F Damp=F
 DIIS: error= 2.46D-05 at cycle   5 NSaved=   5.
 NSaved= 5 IEnMin= 5 EnMin= -151.544245769440     IErMin= 5 ErrMin= 2.46D-05
 ErrMax= 2.46D-05 EMaxC= 1.00D-01 BMatC= 1.02D-07 BMatP= 1.16D-06
 IDIUse=1 WtCom= 1.00D+00 WtEn= 0.00D+00
 Coeff-Com:  0.272D-02-0.379D-01-0.779D-02 0.228D+00 0.815D+00
 Coeff:      0.272D-02-0.379D-01-0.779D-02 0.228D+00 0.815D+00
 Gap=     0.410 Goal=   None    Shift=    0.000
 RMSDP=6.76D-06 MaxDP=8.52D-05 DE=-1.33D-06 OVMax= 2.26D-04

 Initial convergence to 1.0D-05 achieved.  Increase integral accuracy.
 Cycle   6  Pass 1  IDiag  1:
 E= -151.544235993156     Delta-E=        0.000009776283 Rises=F Damp=F
 DIIS: error= 9.34D-05 at cycle   1 NSaved=   1.
 NSaved= 1 IEnMin= 1 EnMin= -151.544235993156     IErMin= 1 ErrMin= 9.34D-05
 ErrMax= 9.34D-05 EMaxC= 1.00D-01 BMatC= 1.39D-06 BMatP= 1.39D-06
 IDIUse=1 WtCom= 1.00D+00 WtEn= 0.00D+00
 Coeff-Com:  0.100D+01
 Coeff:      0.100D+01
 Gap=     0.410 Goal=   None    Shift=    0.000
 RMSDP=6.76D-06 MaxDP=8.52D-05 DE= 9.78D-06 OVMax= 2.02D-04

 Cycle   7  Pass 1  IDiag  1:
 E= -151.544236602968     Delta-E=       -0.000000609812 Rises=F Damp=F
 DIIS: error= 3.35D-05 at cycle   2 NSaved=   2.
 NSaved= 2 IEnMin= 2 EnMin= -151.544236602968     IErMin= 2 ErrMin= 3.35D-05
 ErrMax= 3.35D-05 EMaxC= 1.00D-01 BMatC= 1.24D-07 BMatP= 1.39D-06
 IDIUse=1 WtCom= 1.00D+00 WtEn= 0.00D+00
 Coeff-Com:  0.860D-01 0.914D+00
 Coeff:      0.860D-01 0.914D+00
 Gap=     0.410 Goal=   None    Shift=    0.000
 RMSDP=4.38D-06 MaxDP=1.07D-04 DE=-6.10D-07 OVMax= 1.58D-04

 Cycle   8  Pass 1  IDiag  1:
 E= -151.544236576049     Delta-E=        0.000000026918 Rises=F Damp=F
 DIIS: error= 4.31D-05 at cycle   3 NSaved=   3.
 NSaved= 3 IEnMin= 2 EnMin= -151.544236602968     IErMin= 2 ErrMin= 3.35D-05
 ErrMax= 4.31D-05 EMaxC= 1.00D-01 BMatC= 1.78D-07 BMatP= 1.24D-07
 IDIUse=1 WtCom= 1.00D+00 WtEn= 0.00D+00
 Coeff-Com: -0.324D-01 0.557D+00 0.475D+00
 Coeff:     -0.324D-01 0.557D+00 0.475D+00
 Gap=     0.410 Goal=   None    Shift=    0.000
 RMSDP=2.20D-06 MaxDP=4.50D-05 DE= 2.69D-08 OVMax= 8.99D-05

 Cycle   9  Pass 1  IDiag  1:
 E= -151.544236691487     Delta-E=       -0.000000115437 Rises=F Damp=F
 DIIS: error= 2.40D-06 at cycle   4 NSaved=   4.
 NSaved= 4 IEnMin= 4 EnMin= -151.544236691487     IErMin= 4 ErrMin= 2.40D-06
 ErrMax= 2.40D-06 EMaxC= 1.00D-01 BMatC= 9.46D-10 BMatP= 1.24D-07
 IDIUse=1 WtCom= 1.00D+00 WtEn= 0.00D+00
 Coeff-Com: -0.799D-02 0.812D-01 0.924D-01 0.834D+00
 Coeff:     -0.799D-02 0.812D-01 0.924D-01 0.834D+00
 Gap=     0.410 Goal=   None    Shift=    0.000
 RMSDP=5.05D-07 MaxDP=6.98D-06 DE=-1.15D-07 OVMax= 2.28D-05

 Cycle  10  Pass 1  IDiag  1:
 E= -151.544236692747     Delta-E=       -0.000000001261 Rises=F Damp=F
 DIIS: error= 1.87D-06 at cycle   5 NSaved=   5.
 NSaved= 5 IEnMin= 5 EnMin= -151.544236692747     IErMin= 5 ErrMin= 1.87D-06
 ErrMax= 1.87D-06 EMaxC= 1.00D-01 BMatC= 3.05D-10 BMatP= 9.46D-10
 IDIUse=1 WtCom= 1.00D+00 WtEn= 0.00D+00
 Coeff-Com:  0.348D-02-0.795D-01-0.589D-01 0.313D+00 0.822D+00
 Coeff:      0.348D-02-0.795D-01-0.589D-01 0.313D+00 0.822D+00
 Gap=     0.410 Goal=   None    Shift=    0.000
 RMSDP=3.14D-07 MaxDP=3.70D-06 DE=-1.26D-09 OVMax= 1.64D-05

 Cycle  11  Pass 1  IDiag  1:
 E= -151.544236693235     Delta-E=       -0.000000000488 Rises=F Damp=F
 DIIS: error= 4.48D-07 at cycle   6 NSaved=   6.
 NSaved= 6 IEnMin= 6 EnMin= -151.544236693235     IErMin= 6 ErrMin= 4.48D-07
 ErrMax= 4.48D-07 EMaxC= 1.00D-01 BMatC= 2.08D-11 BMatP= 3.05D-10
 IDIUse=1 WtCom= 1.00D+00 WtEn= 0.00D+00
 Coeff-Com:  0.130D-02-0.144D-01-0.161D-01-0.131D+00 0.252D-01 0.113D+01
 Coeff:      0.130D-02-0.144D-01-0.161D-01-0.131D+00 0.252D-01 0.113D+01
 Gap=     0.410 Goal=   None    Shift=    0.000
 RMSDP=1.62D-07 MaxDP=1.76D-06 DE=-4.88D-10 OVMax= 9.32D-06

 Cycle  12  Pass 1  IDiag  1:
 E= -151.544236693307     Delta-E=       -0.000000000072 Rises=F Damp=F
 DIIS: error= 9.89D-08 at cycle   7 NSaved=   7.
 NSaved= 7 IEnMin= 7 EnMin= -151.544236693307     IErMin= 7 ErrMin= 9.89D-08
 ErrMax= 9.89D-08 EMaxC= 1.00D-01 BMatC= 1.01D-12 BMatP= 2.08D-11
 IDIUse=1 WtCom= 1.00D+00 WtEn= 0.00D+00
 Coeff-Com: -0.227D-03 0.676D-02 0.448D-02-0.418D-01-0.690D-01 0.833D-01
 Coeff-Com:  0.102D+01
 Coeff:     -0.227D-03 0.676D-02 0.448D-02-0.418D-01-0.690D-01 0.833D-01
 Coeff:      0.102D+01
 Gap=     0.410 Goal=   None    Shift=    0.000
 RMSDP=3.03D-08 MaxDP=2.60D-07 DE=-7.15D-11 OVMax= 1.95D-06

 Cycle  13  Pass 1  IDiag  1:
 E= -151.544236693309     Delta-E=       -0.000000000003 Rises=F Damp=F
 DIIS: error= 1.61D-08 at cycle   8 NSaved=   8.
 NSaved= 8 IEnMin= 8 EnMin= -151.544236693309     IErMin= 8 ErrMin= 1.61D-08
 ErrMax= 1.61D-08 EMaxC= 1.00D-01 BMatC= 2.72D-14 BMatP= 1.01D-12
 IDIUse=1 WtCom= 1.00D+00 WtEn= 0.00D+00
 Coeff-Com: -0.549D-04 0.792D-03 0.824D-03 0.568D-02-0.241D-03-0.484D-01
 Coeff-Com: -0.589D-02 0.105D+01
 Coeff:     -0.549D-04 0.792D-03 0.824D-03 0.568D-02-0.241D-03-0.484D-01
 Coeff:     -0.589D-02 0.105D+01
 Gap=     0.410 Goal=   None    Shift=    0.000
 RMSDP=3.62D-09 MaxDP=4.12D-08 DE=-2.79D-12 OVMax= 1.95D-07

 SCF Done:  E(RM062X) =  -151.544236693     A.U. after   13 cycles
             Convg  =    0.3622D-08             -V/T =  2.0026
 KE= 1.511578722866D+02 PE=-4.335636187871D+02 EE= 9.347999720187D+01
 Leave Link  502 at Tue Jun 12 15:56:54 2018, MaxMem=  671088640 cpu:     213.5
 (Enter /shared/apps/gaussian/G09_LINUX_LINDA/g09/l701.exe)
 Compute integral first derivatives.
 ... and contract with generalized density number  0.
 Leave Link  701 at Tue Jun 12 15:56:55 2018, MaxMem=  671088640 cpu:      10.5
 (Enter /shared/apps/gaussian/G09_LINUX_LINDA/g09/l702.exe)
 L702 exits ... SP integral derivatives will be done elsewhere.
 Leave Link  702 at Tue Jun 12 15:56:56 2018, MaxMem=  671088640 cpu:       0.3
 (Enter /shared/apps/gaussian/G09_LINUX_LINDA/g09/l703.exe)
 Compute integral first derivatives, UseDBF=F ICtDFT=           0.
 Integral derivatives from FoFDir, PRISM(SPDF).
 Calling FoFJK, ICntrl=      2127 FMM=F ISym2X=0 I1Cent= 0 IOpClX= 0 NMat=1 NMatS=1 NMatT=0.
 FoFCou: FMM=F IPFlag=           0 FMFlag=      100000 FMFlg1=         800
         NFxFlg=           0 DoJE=F BraDBF=F KetDBF=F FulRan=T
         Omega=  0.000000  0.000000  1.000000  0.000000  0.000000 ICntrl=    2127 IOpCl=  0
         NMat0=    1 NMatS0=    1 NMatT0=    0 NMatD0=    1 NMtDS0=    0 NMtDT0=    0
         I1Cent=           0 NGrid=           0.
 Symmetry not used in FoFCou.
 Leave Link  703 at Tue Jun 12 15:56:58 2018, MaxMem=  671088640 cpu:      23.8
 (Enter /shared/apps/gaussian/G09_LINUX_LINDA/g09/l716.exe)
 Dipole        = 1.89993968D-03 1.75415541D-03 5.25932781D-01
 ***** Axes restored to original set *****
 -------------------------------------------------------------------
 Center     Atomic                   Forces (Hartrees/Bohr)
 Number     Number              X              Y              Z
 -------------------------------------------------------------------
      1        8          -0.004388023   -0.005596332    0.003208395
      2        8           0.004745613    0.006975588    0.003378537
      3        1           0.000516785    0.003903533   -0.003291868
      4        1          -0.000874376   -0.005282790   -0.003295064
 -------------------------------------------------------------------
 Cartesian Forces:  Max     0.006975588 RMS     0.004176647
 Leave Link  716 at Tue Jun 12 15:56:58 2018, MaxMem=  671088640 cpu:       0.3
 (Enter /shared/apps/gaussian/G09_LINUX_LINDA/g09/l103.exe)

 GradGradGradGradGradGradGradGradGradGradGradGradGradGradGradGradGradGrad
 Berny optimization.
 Using GDIIS optimizer.
 Internal  Forces:  Max     0.006218428 RMS     0.004416295
 Search for a local minimum.
 Step number   3 out of a maximum of   20
 All quantities printed in internal units (Hartrees-Bohrs-Radians)
 Swaping is turned off.
 Update second derivatives using D2CorX and points    1    2    3
 DE= -1.61D-03 DEPred=-1.77D-03 R= 9.08D-01
 SS=  1.41D+00  RLast= 1.52D-01 DXNew= 8.4853D-01 4.5540D-01
 Trust test= 9.08D-01 RLast= 1.52D-01 DXMaxT set to 5.05D-01
 The second derivative matrix:
                          R1        R2        R3        A1        A2
           R1           0.47332
           R2          -0.00882   0.51319
           R3          -0.01177   0.01979   0.50826
           A1           0.07632   0.00743   0.00665   0.21128
           A2           0.07725  -0.00093  -0.00325   0.04025   0.19431
           D1           0.02974  -0.00108  -0.00176   0.00311   0.00264
                          D1
           D1           0.02243
 ITU=  1  1  0
     Eigenvalues ---    0.02042   0.16072   0.20147   0.49036   0.51180
     Eigenvalues ---    0.53802
 DIIS coeff's:      0.86235      0.24166     -0.10401
 Cosine:  0.992 >  0.840
 Length:  0.856
 GDIIS step was calculated using  3 of the last  3 vectors.
 Iteration  1 RMS(Cart)=  0.04105176 RMS(Int)=  0.00140137
 Iteration  2 RMS(Cart)=  0.00120333 RMS(Int)=  0.00000056
 Iteration  3 RMS(Cart)=  0.00000056 RMS(Int)=  0.00000000
 Variable       Old X    -DE/DX   Delta X   Delta X   Delta X     New X
                                  (DIIS)     (GDIIS)  (Total)
    R1        2.68722  -0.00208   0.00152   0.00475   0.00627   2.69349
    R2        1.81140   0.00397  -0.00423   0.01108   0.00685   1.81825
    R3        1.80948   0.00502  -0.00503   0.01370   0.00867   1.81815
    A1        1.78073  -0.00518  -0.02303   0.00427  -0.01876   1.76197
    A2        1.78590  -0.00622  -0.01557  -0.01065  -0.02622   1.75968
    D1        2.31664  -0.00251   0.00371  -0.09916  -0.09545   2.22119
         Item               Value     Threshold  Converged?
 Maximum Force            0.006218     0.000002     NO 
 RMS     Force            0.004416     0.000001     NO 
 Maximum Displacement     0.043272     0.000006     NO 
 RMS     Displacement     0.041528     0.000004     NO 
 Predicted change in Energy=-3.167226D-04
 GradGradGradGradGradGradGradGradGradGradGradGradGradGradGradGradGradGrad

 Leave Link  103 at Tue Jun 12 15:57:00 2018, MaxMem=  671088640 cpu:      19.1
 (Enter /shared/apps/gaussian/G09_LINUX_LINDA/g09/l202.exe)
                          Input orientation:                          
 ---------------------------------------------------------------------
 Center     Atomic      Atomic             Coordinates (Angstroms)
 Number     Number       Type             X           Y           Z
 ---------------------------------------------------------------------
      1          8           0        0.571425   -0.413360    0.231834
      2          8           0       -0.573073    0.434997    0.187232
      3          1           0        1.223550    0.135790   -0.214200
      4          1           0       -1.221902   -0.157427   -0.204866
 ---------------------------------------------------------------------
                    Distance matrix (angstroms):
                    1          2          3          4
     1  O    0.000000
     2  O    1.425333   0.000000
     3  H    0.962175   1.865081   0.000000
     4  H    1.863392   0.962126   2.462986   0.000000
 Stoichiometry    H2O2
 Framework group  C1[X(H2O2)]
 Deg. of freedom     6
 Full point group                 C1      NOp   1
 Largest Abelian subgroup         C1      NOp   1
 Largest concise Abelian subgroup C1      NOp   1
                         Standard orientation:                         
 ---------------------------------------------------------------------
 Center     Atomic      Atomic             Coordinates (Angstroms)
 Number     Number       Type             X           Y           Z
 ---------------------------------------------------------------------
      1          8           0        0.701654    0.124073   -0.046724
      2          8           0       -0.701891   -0.124193   -0.046526
      3          1           0        1.029132   -0.677328    0.373151
      4          1           0       -1.027230    0.678281    0.372850
 ---------------------------------------------------------------------
 Rotational constants (GHZ):    308.5978859     27.5644671     26.1795798
 Leave Link  202 at Tue Jun 12 15:57:00 2018, MaxMem=  671088640 cpu:       0.9
 (Enter /shared/apps/gaussian/G09_LINUX_LINDA/g09/l301.exe)
 Standard basis: 6-311+G(2df,2p) (5D, 7F)
 Ernie: Thresh=  0.10000D-02 Tol=  0.10000D-05 Strict=F.
 There are    86 symmetry adapted basis functions of A   symmetry.
 Integral buffers will be    131072 words long.
 Raffenetti 2 integral format.
 Two-electron integral symmetry is turned on.
    86 basis functions,   126 primitive gaussians,    96 cartesian basis functions
     9 alpha electrons        9 beta electrons
       nuclear repulsion energy        37.3174786040 Hartrees.
 IExCor= 4336 DFT=T Ex+Corr=M062X ExCW=0 ScaHFX=  0.540000
 ScaDFX=  1.000000  1.000000  1.000000  1.000000 ScalE2=  1.000000  1.000000
 IRadAn=      0 IRanWt=     -1 IRanGd=            0 ICorTp=0
 NAtoms=    4 NActive=    4 NUniq=    4 SFac= 1.00D+00 NAtFMM=   50 NAOKFM=F Big=F
 Leave Link  301 at Tue Jun 12 15:57:01 2018, MaxMem=  671088640 cpu:       1.0
 (Enter /shared/apps/gaussian/G09_LINUX_LINDA/g09/l302.exe)
 NPDir=0 NMtPBC=     1 NCelOv=     1 NCel=       1 NClECP=     1 NCelD=      1
         NCelK=      1 NCelE2=     1 NClLst=     1 CellRange=     0.0.
 One-electron integrals computed using PRISM.
 NBasis=    86 RedAO= T  NBF=    86
 NBsUse=    86 1.00D-06 NBFU=    86
 Precomputing XC quadrature grid using
 IXCGrd= 2 IRadAn=           0 IRanWt=          -1 IRanGd=           0 AccXCQ= 0.00D+00.
 NRdTot=     252 NPtTot=       31844 NUsed=       33673 NTot=       33705
 NSgBfM=    96    96    96    96    96 NAtAll=     4     4.
 Leave Link  302 at Tue Jun 12 15:57:02 2018, MaxMem=  671088640 cpu:       8.8
 (Enter /shared/apps/gaussian/G09_LINUX_LINDA/g09/l303.exe)
 DipDrv:  MaxL=1.
 Leave Link  303 at Tue Jun 12 15:57:02 2018, MaxMem=  671088640 cpu:       3.1
 (Enter /shared/apps/gaussian/G09_LINUX_LINDA/g09/l401.exe)
 Initial guess read from the read-write file.
 B after Tr=     0.000000    0.000000    0.000000
         Rot=    1.000000    0.000000    0.000000    0.000000 Ang=   0.00 deg.
 Guess basis will be translated and rotated to current coordinates.
 Initial guess orbital symmetries:
       Occupied  (A) (A) (A) (A) (A) (A) (A) (A) (A)
       Virtual   (A) (A) (A) (A) (A) (A) (A) (A) (A) (A) (A) (A)
                 (A) (A) (A) (A) (A) (A) (A) (A) (A) (A) (A) (A)
                 (A) (A) (A) (A) (A) (A) (A) (A) (A) (A) (A) (A)
                 (A) (A) (A) (A) (A) (A) (A) (A) (A) (A) (A) (A)
                 (A) (A) (A) (A) (A) (A) (A) (A) (A) (A) (A) (A)
                 (A) (A) (A) (A) (A) (A) (A) (A) (A) (A) (A) (A)
                 (A) (A) (A) (A) (A)
 The electronic state of the initial guess is 1-A.
 Generating alternative initial guess.
 Harris functional with IExCor= 1009 diagonalized for initial guess.
 ExpMin= 8.45D-02 ExpMax= 8.59D+03 ExpMxC= 1.30D+03 IAcc=2 IRadAn=         0 AccDes= 0.00D+00
 HarFok:  IExCor= 1009 AccDes= 0.00D+00 IRadAn=         0 IDoV= 1
 ScaDFX=  1.000000  1.000000  1.000000  1.000000
 FoFCou: FMM=F IPFlag=           0 FMFlag=      100000 FMFlg1=           0
         NFxFlg=           0 DoJE=T BraDBF=F KetDBF=T FulRan=T
         Omega=  0.000000  0.000000  1.000000  0.000000  0.000000 ICntrl=     500 IOpCl=  0
         NMat0=    1 NMatS0=    1 NMatT0=    0 NMatD0=    1 NMtDS0=    0 NMtDT0=    0
         I1Cent=           4 NGrid=           0.
 Petite list used in FoFCou.
 Harris En= -151.475112156002    
 Leave Link  401 at Tue Jun 12 15:57:05 2018, MaxMem=  671088640 cpu:      28.4
 (Enter /shared/apps/gaussian/G09_LINUX_LINDA/g09/l502.exe)
 Closed shell SCF:
 Requested convergence on RMS density matrix=1.00D-08 within 128 cycles.
 Requested convergence on MAX density matrix=1.00D-06.
 Requested convergence on             energy=1.00D-06.
 No special actions if energy rises.
 Using DIIS extrapolation, IDIIS=  1040.
 Integral symmetry usage will be decided dynamically.
        33624 words used for storage of precomputed grid.
 Keep R1 ints in memory in canonical form, NReq=12863544.
 IEnd=       82034 IEndB=       82034 NGot=   671088640 MDV=   660191035
 LenX=   660191035 LenY=   660181378
 Symmetry not used in FoFDir.
 MinBra= 0 MaxBra= 3 Meth= 1.
 IRaf=       0 NMat=   1 IRICut=       1 DoRegI=T DoRafI=F ISym2E= 0 JSym2E=0.
 Integral accuracy reduced to 1.0D-05 until final iterations.

 Cycle   1  Pass 0  IDiag  1:
 E= -149.539204970158    
 DIIS: error= 1.04D-01 at cycle   1 NSaved=   1.
 NSaved= 1 IEnMin= 1 EnMin= -149.539204970158     IErMin= 1 ErrMin= 1.04D-01
 ErrMax= 1.04D-01 EMaxC= 1.00D-01 BMatC= 1.07D+00 BMatP= 1.07D+00
 IDIUse=3 WtCom= 0.00D+00 WtEn= 1.00D+00
 Coeff-Com:  0.100D+01
 Coeff-En:   0.100D+01
 Coeff:      0.100D+01
 Recover alternate guess density for next cycle.
 RMSDP=1.73D-02 MaxDP=2.69D-01              OVMax= 0.00D+00

 Cycle   2  Pass 0  IDiag  1:
 E= -151.515635965202     Delta-E=       -1.976430995043 Rises=F Damp=F
 DIIS: error= 2.33D-02 at cycle   2 NSaved=   2.
 NSaved= 2 IEnMin= 2 EnMin= -151.515635965202     IErMin= 2 ErrMin= 2.33D-02
 ErrMax= 2.33D-02 EMaxC= 1.00D-01 BMatC= 6.38D-02 BMatP= 1.07D+00
 IDIUse=3 WtCom= 7.67D-01 WtEn= 2.33D-01
 Coeff-Com: -0.515D-01 0.105D+01
 Coeff-En:   0.000D+00 0.100D+01
 Coeff:     -0.395D-01 0.104D+01
 Gap=     0.448 Goal=   None    Shift=    0.000
 RMSDP=2.61D-03 MaxDP=3.31D-02 DE=-1.98D+00 OVMax= 6.48D-02

 Cycle   3  Pass 0  IDiag  1:
 E= -151.530017909439     Delta-E=       -0.014381944237 Rises=F Damp=F
 DIIS: error= 1.79D-02 at cycle   3 NSaved=   3.
 NSaved= 3 IEnMin= 3 EnMin= -151.530017909439     IErMin= 3 ErrMin= 1.79D-02
 ErrMax= 1.79D-02 EMaxC= 1.00D-01 BMatC= 2.22D-02 BMatP= 6.38D-02
 IDIUse=3 WtCom= 8.21D-01 WtEn= 1.79D-01
 Coeff-Com:  0.285D-01 0.301D+00 0.670D+00
 Coeff-En:   0.000D+00 0.287D+00 0.713D+00
 Coeff:      0.234D-01 0.299D+00 0.678D+00
 Gap=     0.426 Goal=   None    Shift=    0.000
 RMSDP=1.24D-03 MaxDP=2.60D-02 DE=-1.44D-02 OVMax= 3.44D-02

 Cycle   4  Pass 0  IDiag  1:
 E= -151.543720613443     Delta-E=       -0.013702704005 Rises=F Damp=F
 DIIS: error= 3.40D-03 at cycle   4 NSaved=   4.
 NSaved= 4 IEnMin= 4 EnMin= -151.543720613443     IErMin= 4 ErrMin= 3.40D-03
 ErrMax= 3.40D-03 EMaxC= 1.00D-01 BMatC= 1.26D-03 BMatP= 2.22D-02
 IDIUse=3 WtCom= 9.66D-01 WtEn= 3.40D-02
 Coeff-Com:  0.256D-03 0.298D-01 0.207D+00 0.763D+00
 Coeff-En:   0.000D+00 0.000D+00 0.000D+00 0.100D+01
 Coeff:      0.247D-03 0.288D-01 0.200D+00 0.771D+00
 Gap=     0.414 Goal=   None    Shift=    0.000
 RMSDP=2.44D-04 MaxDP=4.36D-03 DE=-1.37D-02 OVMax= 7.59D-03

 Cycle   5  Pass 0  IDiag  1:
 E= -151.544590818532     Delta-E=       -0.000870205089 Rises=F Damp=F
 DIIS: error= 6.44D-04 at cycle   5 NSaved=   5.
 NSaved= 5 IEnMin= 5 EnMin= -151.544590818532     IErMin= 5 ErrMin= 6.44D-04
 ErrMax= 6.44D-04 EMaxC= 1.00D-01 BMatC= 2.63D-05 BMatP= 1.26D-03
 IDIUse=3 WtCom= 9.94D-01 WtEn= 6.44D-03
 Coeff-Com: -0.289D-03-0.302D-02 0.277D-01 0.207D+00 0.768D+00
 Coeff-En:   0.000D+00 0.000D+00 0.000D+00 0.000D+00 0.100D+01
 Coeff:     -0.287D-03-0.300D-02 0.275D-01 0.206D+00 0.770D+00
 Gap=     0.414 Goal=   None    Shift=    0.000
 RMSDP=2.65D-05 MaxDP=5.91D-04 DE=-8.70D-04 OVMax= 8.63D-04

 Cycle   6  Pass 0  IDiag  1:
 E= -151.544606701067     Delta-E=       -0.000015882535 Rises=F Damp=F
 DIIS: error= 3.06D-05 at cycle   6 NSaved=   6.
 NSaved= 6 IEnMin= 6 EnMin= -151.544606701067     IErMin= 6 ErrMin= 3.06D-05
 ErrMax= 3.06D-05 EMaxC= 1.00D-01 BMatC= 1.09D-07 BMatP= 2.63D-05
 IDIUse=1 WtCom= 1.00D+00 WtEn= 0.00D+00
 Coeff-Com: -0.249D-04-0.150D-03-0.462D-02-0.240D-01-0.635D-01 0.109D+01
 Coeff:     -0.249D-04-0.150D-03-0.462D-02-0.240D-01-0.635D-01 0.109D+01
 Gap=     0.414 Goal=   None    Shift=    0.000
 RMSDP=5.61D-06 MaxDP=8.01D-05 DE=-1.59D-05 OVMax= 1.82D-04

 Initial convergence to 1.0D-05 achieved.  Increase integral accuracy.
 Cycle   7  Pass 1  IDiag  1:
 E= -151.544590289382     Delta-E=        0.000016411685 Rises=F Damp=F
 DIIS: error= 9.76D-05 at cycle   1 NSaved=   1.
 NSaved= 1 IEnMin= 1 EnMin= -151.544590289382     IErMin= 1 ErrMin= 9.76D-05
 ErrMax= 9.76D-05 EMaxC= 1.00D-01 BMatC= 1.33D-06 BMatP= 1.33D-06
 IDIUse=1 WtCom= 1.00D+00 WtEn= 0.00D+00
 Coeff-Com:  0.100D+01
 Coeff:      0.100D+01
 Gap=     0.414 Goal=   None    Shift=    0.000
 RMSDP=5.61D-06 MaxDP=8.01D-05 DE= 1.64D-05 OVMax= 1.90D-04

 Cycle   8  Pass 1  IDiag  1:
 E= -151.544590906650     Delta-E=       -0.000000617268 Rises=F Damp=F
 DIIS: error= 2.88D-05 at cycle   2 NSaved=   2.
 NSaved= 2 IEnMin= 2 EnMin= -151.544590906650     IErMin= 2 ErrMin= 2.88D-05
 ErrMax= 2.88D-05 EMaxC= 1.00D-01 BMatC= 8.96D-08 BMatP= 1.33D-06
 IDIUse=1 WtCom= 1.00D+00 WtEn= 0.00D+00
 Coeff-Com:  0.498D-01 0.950D+00
 Coeff:      0.498D-01 0.950D+00
 Gap=     0.414 Goal=   None    Shift=    0.000
 RMSDP=3.54D-06 MaxDP=8.88D-05 DE=-6.17D-07 OVMax= 1.37D-04

 Cycle   9  Pass 1  IDiag  1:
 E= -151.544590873860     Delta-E=        0.000000032790 Rises=F Damp=F
 DIIS: error= 4.00D-05 at cycle   3 NSaved=   3.
 NSaved= 3 IEnMin= 2 EnMin= -151.544590906650     IErMin= 2 ErrMin= 2.88D-05
 ErrMax= 4.00D-05 EMaxC= 1.00D-01 BMatC= 1.46D-07 BMatP= 8.96D-08
 IDIUse=1 WtCom= 1.00D+00 WtEn= 0.00D+00
 Coeff-Com: -0.356D-01 0.578D+00 0.458D+00
 Coeff:     -0.356D-01 0.578D+00 0.458D+00
 Gap=     0.414 Goal=   None    Shift=    0.000
 RMSDP=1.94D-06 MaxDP=4.09D-05 DE= 3.28D-08 OVMax= 8.04D-05

 Cycle  10  Pass 1  IDiag  1:
 E= -151.544590968172     Delta-E=       -0.000000094312 Rises=F Damp=F
 DIIS: error= 1.92D-06 at cycle   4 NSaved=   4.
[...]
 Quadrupole moment (field-independent basis, Debye-Ang):
   XX=            -10.4858   YY=            -10.7454   ZZ=            -11.8818
   XY=             -3.1699   XZ=              0.0000   YZ=              0.0000
 Traceless Quadrupole moment (field-independent basis, Debye-Ang):
   XX=              0.5518   YY=              0.2922   ZZ=             -0.8441
   XY=             -3.1699   XZ=              0.0000   YZ=              0.0000
 Octapole moment (field-independent basis, Debye-Ang**2):
  XXX=              0.0000  YYY=              0.0000  ZZZ=              1.1070  XYY=              0.0000
  XXY=              0.0000  XXZ=              2.5465  XZZ=              0.0000  YZZ=              0.0000
  YYZ=              0.9361  XYZ=             -1.5724
 Hexadecapole moment (field-independent basis, Debye-Ang**3):
 XXXX=            -42.7883 YYYY=            -11.7100 ZZZZ=            -11.4035 XXXY=             -4.3327
 XXXZ=              0.0000 YYYX=             -2.7959 YYYZ=              0.0000 ZZZX=              0.0000
 ZZZY=              0.0000 XXYY=             -8.8081 XXZZ=             -9.7941 YYZZ=             -3.5442
 XXYZ=              0.0000 YYXZ=              0.0000 ZZXY=             -1.1672
 N-N= 3.739161884272D+01 E-N=-4.335683528324D+02  KE= 1.511474208024D+02
  Exact polarizability:  16.978  -0.895  11.533   0.000   0.000  10.803
 Approx polarizability:  18.321  -0.678  12.728   0.000   0.000  11.526
 No NMR shielding tensors so no spin-rotation constants.
 Leave Link  601 at Tue Jun 12 16:00:38 2018, MaxMem=  671088640 cpu:       8.3
 (Enter /shared/apps/gaussian/G09_LINUX_LINDA/g09/l701.exe)
 Compute integral second derivatives.
 ... and contract with generalized density number  0.
 Leave Link  701 at Tue Jun 12 16:00:39 2018, MaxMem=  671088640 cpu:      14.9
 (Enter /shared/apps/gaussian/G09_LINUX_LINDA/g09/l702.exe)
 L702 exits ... SP integral derivatives will be done elsewhere.
 Leave Link  702 at Tue Jun 12 16:00:39 2018, MaxMem=  671088640 cpu:       0.3
 (Enter /shared/apps/gaussian/G09_LINUX_LINDA/g09/l703.exe)
 Compute integral second derivatives, UseDBF=F ICtDFT=           0.
 Integral derivatives from FoFDir, PRISM(SPDF).
 Calling FoFJK, ICntrl=    100127 FMM=F ISym2X=0 I1Cent= 0 IOpClX= 0 NMat=1 NMatS=1 NMatT=0.
 FoFCou: FMM=F IPFlag=           0 FMFlag=      100000 FMFlg1=         800
         NFxFlg=           0 DoJE=F BraDBF=F KetDBF=F FulRan=T
         Omega=  0.000000  0.000000  1.000000  0.000000  0.000000 ICntrl=  100127 IOpCl=  0
         NMat0=    1 NMatS0=    1 NMatT0=    0 NMatD0=    1 NMtDS0=    0 NMtDT0=    0
         I1Cent=           0 NGrid=           0.
 Symmetry not used in FoFCou.
 Leave Link  703 at Tue Jun 12 16:00:50 2018, MaxMem=  671088640 cpu:     108.6
 (Enter /shared/apps/gaussian/G09_LINUX_LINDA/g09/l716.exe)
 Dipole        = 1.43987098D-07 1.16825193D-07 7.16238682D-01
 Polarizability= 1.69782407D+01-8.94942859D-01 1.15327802D+01
                -5.74676679D-08 1.19948149D-07 1.08033883D+01
 Full mass-weighted force constant matrix:
 Low frequencies ---  -99.3359    0.0010    0.0018    0.0019   42.6900   47.6298
 Low frequencies ---  385.0507 1048.0030 1369.6389
 Harmonic frequencies (cm**-1), IR intensities (KM/Mole), Raman scattering
 activities (A**4/AMU), depolarization ratios for plane and unpolarized
 incident light, reduced masses (AMU), force constants (mDyne/A),
 and normal coordinates:
                     1                      2                      3
                     A                      A                      A
 Frequencies --   385.0298              1048.0027              1369.6366
 Red. masses --     1.0831                14.5991                 1.1078
 Frc consts  --     0.0946                 9.4471                 1.2244
 IR Inten    --   189.4271                 0.8651                99.9461
  Atom  AN      X      Y      Z        X      Y      Z        X      Y      Z
     1   8     0.00  -0.03   0.04     0.66   0.12   0.01     0.04   0.01   0.04
     2   8     0.00   0.03   0.04    -0.66  -0.12   0.01     0.04   0.01  -0.04
     3   1    -0.04   0.38  -0.59    -0.04  -0.06  -0.20    -0.67  -0.21  -0.07
     4   1     0.04  -0.38  -0.59     0.04   0.06  -0.20    -0.67  -0.21   0.07
                     4                      5                      6
                     A                      A                      A
 Frequencies --  1485.2279              3855.9298              3856.6750
 Red. masses --     1.0923                 1.0673                 1.0695
 Frc consts  --     1.4196                 9.3495                 9.3722
 IR Inten    --     0.3113                78.8274                22.2230
  Atom  AN      X      Y      Z        X      Y      Z        X      Y      Z
     1   8     0.01  -0.05  -0.01    -0.01   0.03   0.02    -0.02   0.03   0.02
     2   8    -0.01   0.05  -0.01    -0.01   0.03  -0.02     0.02  -0.04   0.02
     3   1     0.68   0.16   0.09     0.23  -0.55  -0.38     0.23  -0.55  -0.38
     4   1    -0.68  -0.16   0.09     0.23  -0.55   0.38    -0.23   0.55  -0.38

 -------------------
 - Thermochemistry -
 -------------------
 Temperature   298.150 Kelvin.  Pressure   1.00000 Atm.
 Atom     1 has atomic number  8 and mass  15.99491
 Atom     2 has atomic number  8 and mass  15.99491
 Atom     3 has atomic number  1 and mass   1.00783
 Atom     4 has atomic number  1 and mass   1.00783
 Molecular mass:    34.00548 amu.
 Principal axes and moments of inertia in atomic units:
                           1         2         3
     Eigenvalues --     5.84945  65.71555  67.95383
           X            0.99707  -0.07652   0.00000
           Y            0.07652   0.99707   0.00000
           Z            0.00000   0.00000   1.00000
 This molecule is an asymmetric top.
 Rotational symmetry number  1.
 Rotational temperatures (Kelvin)     14.80718     1.31801     1.27460
 Rotational constants (GHZ):         308.53200    27.46293    26.55834
 Zero-point vibrational energy      71778.9 (Joules/Mol)
                                   17.15558 (Kcal/Mol)
 Warning -- explicit consideration of   1 degrees of freedom as
           vibrations may cause significant error
 Vibrational temperatures:    553.97  1507.84  1970.60  2136.91  5547.82
          (Kelvin)           5548.89
 
 Zero-point correction=                           0.027339 (Hartree/Particle)
 Thermal correction to Energy=                    0.030540
 Thermal correction to Enthalpy=                  0.031484
 Thermal correction to Gibbs Free Energy=         0.005095
 Sum of electronic and zero-point Energies=           -151.517474
 Sum of electronic and thermal Energies=              -151.514273
 Sum of electronic and thermal Enthalpies=            -151.513329
 Sum of electronic and thermal Free Energies=         -151.539718
 
                     E (Thermal)             CV                S
                      KCal/Mol        Cal/Mol-Kelvin    Cal/Mol-Kelvin
 Total                   19.164              7.987             55.540
 Electronic               0.000              0.000              0.000
 Translational            0.889              2.981             36.503
 Rotational               0.889              2.981             17.908
 Vibrational             17.387              2.026              1.129
 Vibration     1          0.754              1.502              1.019
                       Q            Log10(Q)             Ln(Q)
 Total Bot       0.453265D-02         -2.343648         -5.396449
 Total V=0       0.170398D+11         10.231463         23.558815
 Vib (Bot)       0.317855D-12        -12.497771        -28.777182
 Vib (Bot)    1  0.467930D+00         -0.329819         -0.759436
 Vib (V=0)       0.119492D+01          0.077340          0.178082
 Vib (V=0)    1  0.118481D+01          0.073647          0.169579
 Electronic      0.100000D+01          0.000000          0.000000
 Translational   0.779433D+07          6.891779         15.868907
 Rotational      0.182955D+04          3.262345          7.511827
 
                                                    Gaussian input prepared by AS
 E
                                                             IR Spectrum
 
     33                                                                             1  1          1                                  
     88                                                                             4  3          0                     3            
     55                                                                             8  7          4                     8            
     76                                                                             5  0          8                     5            
 
     XX                                                                             X  X          X                     X            
     XX                                                                                X                                X            
      X                                                                                X                                X            
      X                                                                                X                                X            
      X                                                                                X                                X            
      X                                                                                X                                X            
      X                                                                                X                                X            
      X                                                                                X                                X            
                                                                                       X                                X            
                                                                                       X                                X            
                                                                                       X                                X            
                                                                                                                        X            
                                                                                                                        X            
                                                                                                                        X            
                                                                                                                        X            
                                                                                                                        X            
                                                                                                                        X            
                                                                                                                        X            
                                                                                                                        X            
                                                                                                                        X            
 
 ***** Axes restored to original set *****
 -------------------------------------------------------------------
 Center     Atomic                   Forces (Hartrees/Bohr)
 Number     Number              X              Y              Z
 -------------------------------------------------------------------
      1        8           0.000007022    0.000010031   -0.000000510
      2        8          -0.000007013   -0.000010007    0.000000487
      3        1          -0.000002263    0.000020465   -0.000001017
      4        1           0.000002253   -0.000020489    0.000001040
 -------------------------------------------------------------------
 Cartesian Forces:  Max     0.000020489 RMS     0.000009793
 Force constants in Cartesian coordinates: 
                1             2             3             4             5 
      1  0.485926D+00
      2  0.405196D-01  0.305552D+00
      3 -0.166912D+00 -0.191139D+00  0.197987D+00
      4 -0.239173D+00  0.108744D+00  0.163731D-01  0.484465D+00
      5  0.106565D+00 -0.127080D+00 -0.874218D-02  0.563320D-01  0.342696D+00
      6 -0.281739D-01  0.197855D-01 -0.224342D-01  0.163387D+00  0.176819D+00
      7 -0.212698D+00 -0.136693D+00  0.163299D+00 -0.340883D-01 -0.112208D-01
      8 -0.187467D+00 -0.187783D+00  0.183378D+00  0.398875D-01  0.733222D-02
      9  0.191523D+00  0.168921D+00 -0.175712D+00 -0.776037D-02 -0.320787D-02
     10 -0.340546D-01 -0.125709D-01 -0.127604D-01 -0.211204D+00 -0.151676D+00
     11  0.403831D-01  0.931062D-02  0.165032D-01 -0.204964D+00 -0.222948D+00
     12  0.356297D-02  0.243316D-02  0.159451D-03 -0.171999D+00 -0.164869D+00
                6             7             8             9            10 
      6  0.162304D+00
      7  0.138025D-01  0.251775D+00
      8 -0.170478D-01  0.145909D+00  0.182557D+00
      9  0.217157D-02 -0.180325D+00 -0.166210D+00  0.172001D+00
     10 -0.149015D+00 -0.498852D-02  0.167090D-02 -0.343739D-02  0.250247D+00
     11 -0.179557D+00  0.200489D-02 -0.210638D-02  0.496927D-03  0.162576D+00
     12 -0.142042D+00  0.322339D-02 -0.120723D-03  0.153912D-02  0.165213D+00
               11            12 
     11  0.215744D+00
     12  0.162557D+00  0.140343D+00
 Force constants in internal coordinates: 
                1             2             3             4             5 
      1  0.376241D+00
      2 -0.390497D-02  0.533552D+00
      3 -0.390498D-02 -0.802905D-04  0.533553D+00
      4  0.740201D-01 -0.944774D-03  0.334588D-03  0.233579D+00
      5  0.740201D-01  0.334589D-03 -0.944767D-03  0.192931D-01  0.233579D+00
      6 -0.120672D-02  0.176895D-02  0.176895D-02  0.872666D-02  0.872664D-02
                6 
      6  0.930134D-02
 Leave Link  716 at Tue Jun 12 16:00:51 2018, MaxMem=  671088640 cpu:       4.0
 (Enter /shared/apps/gaussian/G09_LINUX_LINDA/g09/l103.exe)

 GradGradGradGradGradGradGradGradGradGradGradGradGradGradGradGradGradGrad
 Berny optimization.
 Red2BG is reusing G-inverse.
 Internal  Forces:  Max     0.000000034 RMS     0.000000018
 Search for a local minimum.
 Step number   1 out of a maximum of    2
 All quantities printed in internal units (Hartrees-Bohrs-Radians)
 Swaping is turned off.
 Second derivative matrix not updated -- analytic derivatives used.
 The second derivative matrix:
                          R1        R2        R3        A1        A2
           R1           0.37624
           R2          -0.00390   0.53355
           R3          -0.00390  -0.00008   0.53355
           A1           0.07402  -0.00094   0.00033   0.23358
           A2           0.07402   0.00033  -0.00094   0.01929   0.23358
           D1          -0.00121   0.00177   0.00177   0.00873   0.00873
                          D1
           D1           0.00930
 ITU=  0
     Eigenvalues ---    0.00854   0.19373   0.21428   0.43586   0.53364
     Eigenvalues ---    0.53376
 Angle between quadratic step and forces=  90.00 degrees.
 Linear search not attempted -- option 19 set.
 Iteration  1 RMS(Cart)=  0.00000009 RMS(Int)=  0.00000000
 Variable       Old X    -DE/DX   Delta X   Delta X   Delta X     New X
                                 (Linear)    (Quad)   (Total)
    R1        2.68353   0.00000   0.00000   0.00000   0.00000   2.68353
    R2        1.81989   0.00000   0.00000   0.00000   0.00000   1.81989
    R3        1.81989   0.00000   0.00000   0.00000   0.00000   1.81989
    A1        1.77292   0.00000   0.00000   0.00000   0.00000   1.77292
    A2        1.77292   0.00000   0.00000   0.00000   0.00000   1.77292
    D1        1.98323   0.00000   0.00000   0.00000   0.00000   1.98323
         Item               Value     Threshold  Converged?
 Maximum Force            0.000000     0.000002     YES
 RMS     Force            0.000000     0.000001     YES
 Maximum Displacement     0.000000     0.000006     YES
 RMS     Displacement     0.000000     0.000004     YES
 Predicted change in Energy=-2.606978D-15
 Optimization completed.
    -- Stationary point found.
                           ----------------------------
                           !   Optimized Parameters   !
                           ! (Angstroms and Degrees)  !
 --------------------------                            --------------------------
 ! Name  Definition              Value          Derivative Info.                !
 --------------------------------------------------------------------------------
 ! R1    R(1,2)                  1.4201         -DE/DX =    0.0                 !
 ! R2    R(1,3)                  0.963          -DE/DX =    0.0                 !
 ! R3    R(2,4)                  0.963          -DE/DX =    0.0                 !
 ! A1    A(2,1,3)              101.5807         -DE/DX =    0.0                 !
 ! A2    A(1,2,4)              101.5807         -DE/DX =    0.0                 !
 ! D1    D(3,1,2,4)            113.6307         -DE/DX =    0.0                 !
 --------------------------------------------------------------------------------
 GradGradGradGradGradGradGradGradGradGradGradGradGradGradGradGradGradGrad

 Leave Link  103 at Tue Jun 12 16:00:52 2018, MaxMem=  671088640 cpu:       9.0
 (Enter /shared/apps/gaussian/G09_LINUX_LINDA/g09/l9999.exe)

 Test job not archived.
 1\1\GINC-COMPUTE-3-041\Freq\RM062X\6-311+G(2df,2p)\H2O2\ROOT\12-Jun-20
 18\0\\#P Geom=AllCheck Guess=TCheck SCRF=Check Test GenChk RM062X/6-31
 1+G(2df,2p) Freq\\Gaussian input prepared by ASE\\0,1\O,0.5817757449,-
 0.3926595877,0.2795755205\O,-0.5829165917,0.4186261178,0.2361513621\H,
 1.1932089433,0.1177424072,-0.2618071787\H,-1.1920680966,-0.1437089373,
 -0.2539197039\\Version=EM64L-G09RevB.01\State=1-A\HF=-151.5448131\RMSD
 =1.614e-09\RMSF=9.793e-06\ZeroPoint=0.0273392\Thermal=0.0305401\Dipole
 =0.0015823,-0.0360163,-0.7153308\DipoleDeriv=-0.2690681,-0.0106157,-0.
 0603243,-0.0226052,-0.2424036,-0.1012969,0.0393371,-0.1567533,-0.29849
 23,-0.2691685,-0.00517,0.0613057,-0.0268645,-0.2171877,0.0929843,-0.03
 66597,0.1485151,-0.3236075,0.2689953,0.0093052,0.030707,0.0258047,0.23
 7019,0.0759846,0.0230792,0.0753985,0.3039494,0.2692412,0.0064806,-0.03
 16883,0.0236651,0.2225722,-0.0676719,-0.0257566,-0.0671604,0.3181503\P
 olar=16.6605871,-1.5561075,11.8474118,0.0913056,-0.0560083,10.8064103\
 PG=C01 [X(H2O2)]\NImag=0\\0.48592567,0.04051957,0.30555250,-0.16691194
 ,-0.19113949,0.19798665,-0.23917268,0.10874435,0.01637305,0.48446458,0
 .10656452,-0.12708003,-0.00874218,0.05633201,0.34269600,-0.02817392,0.
 01978545,-0.02243424,0.16338676,0.17681940,0.16230430,-0.21269838,-0.1
 3669300,0.16329928,-0.03408833,-0.01122078,0.01380246,0.25177523,-0.18
 746723,-0.18778309,0.18337841,0.03988745,0.00733222,-0.01704776,0.1459
 0888,0.18255726,0.19152288,0.16892087,-0.17571186,-0.00776037,-0.00320
 787,0.00217157,-0.18032513,-0.16620993,0.17200117,-0.03405461,-0.01257
 092,-0.01276040,-0.21120357,-0.15167575,-0.14901530,-0.00498852,0.0016
 7090,-0.00343739,0.25024670,0.04038314,0.00931062,0.01650325,-0.204963
 81,-0.22294819,-0.17955710,0.00200489,-0.00210638,0.00049693,0.1625757
 8,0.21574396,0.00356297,0.00243316,0.00015945,-0.17199944,-0.16486935,
 -0.14204163,0.00322339,-0.00012072,0.00153912,0.16521308,0.16255692,0.
 14034306\\-0.00000702,-0.00001003,0.00000051,0.00000701,0.00001001,-0.
 00000049,0.00000226,-0.00002047,0.00000102,-0.00000225,0.00002049,-0.0
 0000104\\\@


 Children are likely to live up to what you believe of them.
 -- Lady Bird Johnson
 Job cpu time:  0 days  0 hours  7 minutes 24.2 seconds.
 File lengths (MBytes):  RWF=     75 Int=      0 D2E=      0 Chk=      2 Scr=      1
 Normal termination of Gaussian 09 at Tue Jun 12 16:00:52 2018.
