 Entering Gaussian System, Link 0=g09
 Initial command:
 /shared/apps/gaussian/G09_LINUX_LINDA/g09/l1.exe /home/harms.n/Code/AutoTST/ipython_notebooks/Gau-10695.inp -scrdir=/home/harms.n/Code/AutoTST/ipython_notebooks/
 Entering Link 1 = /shared/apps/gaussian/G09_LINUX_LINDA/g09/l1.exe PID=     10696.
  
 Copyright (c) 1988,1990,1992,1993,1995,1998,2003,2009,2010,
            Gaussian, Inc.  All Rights Reserved.
  
 This is part of the Gaussian(R) 09 program.  It is based on
 the Gaussian(R) 03 system (copyright 2003, Gaussian, Inc.),
 the Gaussian(R) 98 system (copyright 1998, Gaussian, Inc.),
 the Gaussian(R) 94 system (copyright 1995, Gaussian, Inc.),
 the Gaussian 92(TM) system (copyright 1992, Gaussian, Inc.),
 the Gaussian 90(TM) system (copyright 1990, Gaussian, Inc.),
 the Gaussian 88(TM) system (copyright 1988, Gaussian, Inc.),
 the Gaussian 86(TM) system (copyright 1986, Carnegie Mellon
 University), and the Gaussian 82(TM) system (copyright 1983,
 Carnegie Mellon University). Gaussian is a federally registered
 trademark of Gaussian, Inc.
  
 This software contains proprietary and confidential information,
 including trade secrets, belonging to Gaussian, Inc.
  
 This software is provided under written license and may be
 used, copied, transmitted, or stored only in accord with that
 written license.
  
 The following legend is applicable only to US Government
 contracts under FAR:
  
                    RESTRICTED RIGHTS LEGEND
  
 Use, reproduction and disclosure by the US Government is
 subject to restrictions as set forth in subparagraphs (a)
 and (c) of the Commercial Computer Software - Restricted
 Rights clause in FAR 52.227-19.
  
 Gaussian, Inc.
 340 Quinnipiac St., Bldg. 40, Wallingford CT 06492
  
  
 ---------------------------------------------------------------
 Warning -- This program may not be used in any manner that
 competes with the business of Gaussian, Inc. or will provide
 assistance to any competitor of Gaussian, Inc.  The licensee
 of this program is prohibited from giving any competitor of
 Gaussian, Inc. access to this program.  By using this program,
 the user acknowledges that Gaussian, Inc. is engaged in the
 business of creating and licensing software in the field of
 computational chemistry and represents and warrants to the
 licensee that it is not a competitor of Gaussian, Inc. and that
 it will not use this program in any manner prohibited above.
 ---------------------------------------------------------------
  

 Cite this work as:
 Gaussian 09, Revision B.01,
 M. J. Frisch, G. W. Trucks, H. B. Schlegel, G. E. Scuseria, 
 M. A. Robb, J. R. Cheeseman, G. Scalmani, V. Barone, B. Mennucci, 
 G. A. Petersson, H. Nakatsuji, M. Caricato, X. Li, H. P. Hratchian, 
 A. F. Izmaylov, J. Bloino, G. Zheng, J. L. Sonnenberg, M. Hada, 
 M. Ehara, K. Toyota, R. Fukuda, J. Hasegawa, M. Ishida, T. Nakajima, 
 Y. Honda, O. Kitao, H. Nakai, T. Vreven, J. A. Montgomery, Jr., 
 J. E. Peralta, F. Ogliaro, M. Bearpark, J. J. Heyd, E. Brothers, 
 K. N. Kudin, V. N. Staroverov, T. Keith, R. Kobayashi, J. Normand, 
 K. Raghavachari, A. Rendell, J. C. Burant, S. S. Iyengar, J. Tomasi, 
 M. Cossi, N. Rega, J. M. Millam, M. Klene, J. E. Knox, J. B. Cross, 
 V. Bakken, C. Adamo, J. Jaramillo, R. Gomperts, R. E. Stratmann, 
 O. Yazyev, A. J. Austin, R. Cammi, C. Pomelli, J. W. Ochterski, 
 R. L. Martin, K. Morokuma, V. G. Zakrzewski, G. A. Voth, 
 P. Salvador, J. J. Dannenberg, S. Dapprich, A. D. Daniels, 
 O. Farkas, J. B. Foresman, J. V. Ortiz, J. Cioslowski, 
 and D. J. Fox, Gaussian, Inc., Wallingford CT, 2010.
 
 ******************************************
 Gaussian 09:  EM64L-G09RevB.01 12-Aug-2010
                26-Apr-2018 
 ******************************************
 %nprocshared=20
 Will use up to   20 processors via shared memory.
 %mem=5GB
 ---------------------------------------------
 #p hf/6-31g* opt=(ts,calcfc,noeigentest) freq
 ---------------------------------------------
 1/5=1,10=4,11=1,18=20,38=1/1,3;
 2/9=110,12=2,17=6,18=5,40=1/2;
 3/5=1,6=6,7=1,11=9,16=1,25=1,30=1,71=2/1,2,3;
 4//1;
 5/5=2,38=5/2;
 8/6=4,10=90,11=11/1;
 11/6=1,8=1,9=11,15=111,16=1/1,2,10;
 10/6=1,7=6,13=1/2;
 6/7=2,8=2,9=2,10=2,28=1/1;
 7/10=1,18=20,25=1/1,2,3,16;
 1/5=1,10=4,11=1,18=20/3(2);
 2/9=110/2;
 99//99;
 2/9=110/2;
 3/5=1,6=6,7=1,11=9,16=1,25=1,30=1,71=1/1,2,3;
 4/5=5,16=3/1;
 5/5=2,38=5/2;
 7//1,2,3,16;
 1/5=1,11=1,18=20/3(-5);
 2/9=110/2;
 6/7=2,8=2,9=2,10=2,19=2,28=1/1;
 99/9=1/99;
 Leave Link    1 at Thu Apr 26 14:02:54 2018, MaxMem=  671088640 cpu:       5.2
 (Enter /shared/apps/gaussian/G09_LINUX_LINDA/g09/l101.exe)
 ------------------------------
 Gaussian input prepared by ASE
 ------------------------------
 Symbolic Z-matrix:
 Charge =  0 Multiplicity = 2
 O                    -2.52292   1.13872  -2.21165 
 O                    -1.85144   0.34807  -3.09991 
 C                     0.51002   1.15509  -1.023 
 C                     0.81412   0.12076  -0.19281 
 C                    -0.57831   2.11127  -0.88115 
 C                     1.97475  -0.79276  -0.49792 
 C                     0.06824  -0.20412   1.07669 
 H                    -1.82181  -0.49979  -2.67235 
 H                     1.1075    1.26494  -1.91237 
 H                    -1.60804   1.63777  -1.54717 
 H                    -0.43118   3.04757  -1.39909 
 H                    -0.9972    2.24982   0.10333 
 H                     2.4769   -0.51667  -1.41746 
 H                     2.70692  -0.76969   0.30626 
 H                     1.64357  -1.82497  -0.59079 
 H                    -0.78325   0.43909   1.25026 
 H                    -0.29261  -1.22977   1.05085 
 H                     0.72918  -0.12643   1.93708 
 
 NAtoms=     18 NQM=     18 NQMF=      0 NMic=      0 NMicF=      0 NTot=     18.
                    Isotopes and Nuclear Properties:
 (Nuclear quadrupole moments (NQMom) in fm**2, nuclear magnetic moments (NMagM)
  in nuclear magnetons)

  Atom         1           2           3           4           5           6           7           8           9          10
 IAtWgt=          16          16          12          12          12          12          12           1           1           1
 AtmWgt=  15.9949146  15.9949146  12.0000000  12.0000000  12.0000000  12.0000000  12.0000000   1.0078250   1.0078250   1.0078250
 NucSpn=           0           0           0           0           0           0           0           1           1           1
 AtZEff=   0.0000000   0.0000000   0.0000000   0.0000000   0.0000000   0.0000000   0.0000000   0.0000000   0.0000000   0.0000000
 NQMom=    0.0000000   0.0000000   0.0000000   0.0000000   0.0000000   0.0000000   0.0000000   0.0000000   0.0000000   0.0000000
 NMagM=    0.0000000   0.0000000   0.0000000   0.0000000   0.0000000   0.0000000   0.0000000   2.7928460   2.7928460   2.7928460

  Atom        11          12          13          14          15          16          17          18
 IAtWgt=           1           1           1           1           1           1           1           1
 AtmWgt=   1.0078250   1.0078250   1.0078250   1.0078250   1.0078250   1.0078250   1.0078250   1.0078250
 NucSpn=           1           1           1           1           1           1           1           1
 AtZEff=   0.0000000   0.0000000   0.0000000   0.0000000   0.0000000   0.0000000   0.0000000   0.0000000
 NQMom=    0.0000000   0.0000000   0.0000000   0.0000000   0.0000000   0.0000000   0.0000000   0.0000000
 NMagM=    2.7928460   2.7928460   2.7928460   2.7928460   2.7928460   2.7928460   2.7928460   2.7928460
 Leave Link  101 at Thu Apr 26 14:02:54 2018, MaxMem=  671088640 cpu:       1.2
 (Enter /shared/apps/gaussian/G09_LINUX_LINDA/g09/l103.exe)

 GradGradGradGradGradGradGradGradGradGradGradGradGradGradGradGradGradGrad
 Berny optimization.
 Initialization pass.
                           ----------------------------
                           !    Initial Parameters    !
                           ! (Angstroms and Degrees)  !
 --------------------------                            --------------------------
 ! Name  Definition              Value          Derivative Info.                !
 --------------------------------------------------------------------------------
 ! R1    R(1,2)                  1.3657         calculate D2E/DX2 analytically  !
 ! R2    R(1,10)                 1.236          calculate D2E/DX2 analytically  !
 ! R3    R(2,8)                  0.95           calculate D2E/DX2 analytically  !
 ! R4    R(3,4)                  1.3607         calculate D2E/DX2 analytically  !
 ! R5    R(3,5)                  1.4556         calculate D2E/DX2 analytically  !
 ! R6    R(3,9)                  1.077          calculate D2E/DX2 analytically  !
 ! R7    R(4,6)                  1.5082         calculate D2E/DX2 analytically  !
 ! R8    R(4,7)                  1.5078         calculate D2E/DX2 analytically  !
 ! R9    R(5,10)                 1.3146         calculate D2E/DX2 analytically  !
 ! R10   R(5,11)                 1.0801         calculate D2E/DX2 analytically  !
 ! R11   R(5,12)                 1.0788         calculate D2E/DX2 analytically  !
 ! R12   R(6,13)                 1.0835         calculate D2E/DX2 analytically  !
 ! R13   R(6,14)                 1.0878         calculate D2E/DX2 analytically  !
 ! R14   R(6,15)                 1.088          calculate D2E/DX2 analytically  !
 ! R15   R(7,16)                 1.0811         calculate D2E/DX2 analytically  !
 ! R16   R(7,17)                 1.0876         calculate D2E/DX2 analytically  !
 ! R17   R(7,18)                 1.0877         calculate D2E/DX2 analytically  !
 ! A1    A(2,1,10)             102.6794         calculate D2E/DX2 analytically  !
 ! A2    A(1,2,8)              103.8451         calculate D2E/DX2 analytically  !
 ! A3    A(4,3,5)              127.3706         calculate D2E/DX2 analytically  !
 ! A4    A(4,3,9)              117.2161         calculate D2E/DX2 analytically  !
 ! A5    A(5,3,9)              115.3554         calculate D2E/DX2 analytically  !
 ! A6    A(3,4,6)              120.5958         calculate D2E/DX2 analytically  !
 ! A7    A(3,4,7)              124.5349         calculate D2E/DX2 analytically  !
 ! A8    A(6,4,7)              114.8659         calculate D2E/DX2 analytically  !
 ! A9    A(3,5,10)             107.4385         calculate D2E/DX2 analytically  !
 ! A10   A(3,5,11)             114.8894         calculate D2E/DX2 analytically  !
 ! A11   A(3,5,12)             117.6188         calculate D2E/DX2 analytically  !
 ! A12   A(10,5,11)            100.1368         calculate D2E/DX2 analytically  !
 ! A13   A(10,5,12)            101.7968         calculate D2E/DX2 analytically  !
 ! A14   A(11,5,12)            112.2821         calculate D2E/DX2 analytically  !
 ! A15   A(4,6,13)             111.9623         calculate D2E/DX2 analytically  !
 ! A16   A(4,6,14)             110.8277         calculate D2E/DX2 analytically  !
 ! A17   A(4,6,15)             110.9564         calculate D2E/DX2 analytically  !
 ! A18   A(13,6,14)            108.0632         calculate D2E/DX2 analytically  !
 ! A19   A(13,6,15)            108.0826         calculate D2E/DX2 analytically  !
 ! A20   A(14,6,15)            106.7445         calculate D2E/DX2 analytically  !
 ! A21   A(4,7,16)             113.3643         calculate D2E/DX2 analytically  !
 ! A22   A(4,7,17)             110.3228         calculate D2E/DX2 analytically  !
 ! A23   A(4,7,18)             110.4876         calculate D2E/DX2 analytically  !
 ! A24   A(16,7,17)            107.6713         calculate D2E/DX2 analytically  !
 ! A25   A(16,7,18)            108.0045         calculate D2E/DX2 analytically  !
 ! A26   A(17,7,18)            106.7238         calculate D2E/DX2 analytically  !
 ! A27   L(1,10,5,2,-1)        176.1135         calculate D2E/DX2 analytically  !
 ! A28   L(1,10,5,2,-2)        180.9146         calculate D2E/DX2 analytically  !
 ! D1    D(10,1,2,8)            92.5884         calculate D2E/DX2 analytically  !
 ! D2    D(2,1,5,3)            -24.5209         calculate D2E/DX2 analytically  !
 ! D3    D(2,1,5,11)            95.2776         calculate D2E/DX2 analytically  !
 ! D4    D(2,1,5,12)          -148.5884         calculate D2E/DX2 analytically  !
 ! D5    D(5,3,4,6)            179.2176         calculate D2E/DX2 analytically  !
 ! D6    D(5,3,4,7)             -1.4905         calculate D2E/DX2 analytically  !
 ! D7    D(9,3,4,6)              2.1296         calculate D2E/DX2 analytically  !
 ! D8    D(9,3,4,7)           -178.5785         calculate D2E/DX2 analytically  !
 ! D9    D(4,3,5,10)           -92.1522         calculate D2E/DX2 analytically  !
 ! D10   D(4,3,5,11)           157.4153         calculate D2E/DX2 analytically  !
 ! D11   D(4,3,5,12)            21.8139         calculate D2E/DX2 analytically  !
 ! D12   D(9,3,5,10)            84.9822         calculate D2E/DX2 analytically  !
 ! D13   D(9,3,5,11)           -25.4504         calculate D2E/DX2 analytically  !
 ! D14   D(9,3,5,12)          -161.0517         calculate D2E/DX2 analytically  !
 ! D15   D(3,4,6,13)            -0.5647         calculate D2E/DX2 analytically  !
 ! D16   D(3,4,6,14)           120.1731         calculate D2E/DX2 analytically  !
 ! D17   D(3,4,6,15)          -121.417          calculate D2E/DX2 analytically  !
 ! D18   D(7,4,6,13)          -179.9218         calculate D2E/DX2 analytically  !
 ! D19   D(7,4,6,14)           -59.184          calculate D2E/DX2 analytically  !
 ! D20   D(7,4,6,15)            59.2259         calculate D2E/DX2 analytically  !
 ! D21   D(3,4,7,16)             3.1022         calculate D2E/DX2 analytically  !
 ! D22   D(3,4,7,17)           123.9405         calculate D2E/DX2 analytically  !
 ! D23   D(3,4,7,18)          -118.2869         calculate D2E/DX2 analytically  !
 ! D24   D(6,4,7,16)          -177.5696         calculate D2E/DX2 analytically  !
 ! D25   D(6,4,7,17)           -56.7312         calculate D2E/DX2 analytically  !
 ! D26   D(6,4,7,18)            61.0413         calculate D2E/DX2 analytically  !
 --------------------------------------------------------------------------------
 Trust Radius=3.00D-01 FncErr=1.00D-07 GrdErr=1.00D-07
 Number of steps in this run=     81 maximum allowed number of steps=    108.
 Search for a saddle point of order  1.
 GradGradGradGradGradGradGradGradGradGradGradGradGradGradGradGradGradGrad

 Leave Link  103 at Thu Apr 26 14:02:54 2018, MaxMem=  671088640 cpu:       0.2
 (Enter /shared/apps/gaussian/G09_LINUX_LINDA/g09/l202.exe)
                          Input orientation:                          
 ---------------------------------------------------------------------
 Center     Atomic      Atomic             Coordinates (Angstroms)
 Number     Number       Type             X           Y           Z
 ---------------------------------------------------------------------
      1          8           0       -2.522921    1.138716   -2.211650
      2          8           0       -1.851441    0.348065   -3.099914
      3          6           0        0.510015    1.155089   -1.023000
      4          6           0        0.814118    0.120757   -0.192813
      5          6           0       -0.578306    2.111272   -0.881154
      6          6           0        1.974753   -0.792763   -0.497919
      7          6           0        0.068236   -0.204117    1.076695
      8          1           0       -1.821806   -0.499794   -2.672349
      9          1           0        1.107503    1.264940   -1.912365
     10          1           0       -1.608037    1.637771   -1.547167
     11          1           0       -0.431177    3.047566   -1.399085
     12          1           0       -0.997196    2.249816    0.103335
     13          1           0        2.476904   -0.516668   -1.417456
     14          1           0        2.706919   -0.769689    0.306265
     15          1           0        1.643570   -1.824969   -0.590785
     16          1           0       -0.783250    0.439086    1.250257
     17          1           0       -0.292615   -1.229774    1.050850
     18          1           0        0.729179   -0.126431    1.937078
 ---------------------------------------------------------------------
                    Distance matrix (angstroms):
                    1          2          3          4          5
     1  O    0.000000
     2  O    1.365660   0.000000
     3  C    3.257585   3.246743   0.000000
     4  C    4.030853   3.950711   1.360710   0.000000
     5  C    2.549041   3.106874   1.455627   2.524838   0.000000
     6  C    5.186189   4.765673   2.493049   1.508205   3.885666
     7  C    4.396648   4.629701   2.539946   1.507824   3.100357
     8  H    1.840793   0.950029   3.300967   3.671686   3.401814
     9  H    3.644925   3.317572   1.077047   2.086166   2.149797
    10  H    1.235964   2.033128   2.234698   3.162663   1.314581
    11  H    2.946076   3.492460   2.146801   3.401774   1.080068
    12  H    2.986894   3.821936   2.176865   2.810952   1.078833
    13  H    5.326282   4.723664   2.611325   2.161230   4.065464
    14  H    6.110084   5.799145   3.209065   2.150504   4.527980
    15  H    5.363793   4.820053   3.217530   2.152259   4.529353
    16  H    3.937098   4.480325   2.711622   2.176090   2.716821
    17  H    4.607376   4.706204   3.260772   2.143709   3.869992
    18  H    5.421134   5.679440   3.233015   2.145868   3.828741
                    6          7          8          9         10
     6  C    0.000000
     7  C    2.541794   0.000000
     8  H    4.384957   4.208921   0.000000
     9  H    2.643280   3.488937   3.503243   0.000000
    10  H    4.454750   3.617609   2.425060   2.765235   0.000000
    11  H    4.620469   4.117322   4.017315   2.410134   1.842403
    12  H    4.295494   2.846816   3.993089   3.076163   1.863299
    13  H    1.083481   3.481401   4.478164   2.300940   4.620083
    14  H    1.087801   2.806436   5.427185   3.408837   5.277302
    15  H    1.088005   2.808794   4.254155   3.403157   4.845428
    16  H    3.490008   1.081140   4.164965   3.776130   3.153205
    17  H    2.780399   1.087590   4.090661   4.118807   4.086911
    18  H    2.815078   1.087722   5.281453   4.110627   4.551368
                   11         12         13         14         15
    11  H    0.000000
    12  H    1.792777   0.000000
    13  H    4.600113   4.694209   0.000000
    14  H    5.227552   4.783206   1.757310   0.000000
    15  H    5.357193   4.905029   1.757691   1.746146   0.000000
    16  H    3.734587   2.154053   4.319579   3.812288   3.795371
    17  H    4.931229   3.674474   3.777735   3.124626   2.607304
    18  H    4.748754   3.462590   3.802594   2.642876   3.179817
                   16         17         18
    16  H    0.000000
    17  H    1.750880   0.000000
    18  H    1.754700   1.745516   0.000000
 Stoichiometry    C5H11O2(2)
 Framework group  C1[X(C5H11O2)]
 Deg. of freedom    48
 Full point group                 C1      NOp   1
 Largest Abelian subgroup         C1      NOp   1
 Largest concise Abelian subgroup C1      NOp   1
                         Standard orientation:                         
 ---------------------------------------------------------------------
 Center     Atomic      Atomic             Coordinates (Angstroms)
 Number     Number       Type             X           Y           Z
 ---------------------------------------------------------------------
      1          8           0       -2.586379   -0.190207   -0.453485
      2          8           0       -2.363976    1.144637   -0.269761
      3          6           0        0.364699   -0.146661    0.925320
      4          6           0        1.406038    0.011591    0.063868
      5          6           0       -0.660504   -1.179467    0.891871
      6          6           0        2.375114    1.154850    0.232791
      7          6           0        1.703917   -0.906125   -1.094838
      8          1           0       -1.823064    1.389192   -1.011490
      9          1           0        0.248690    0.593481    1.699117
     10          1           0       -1.670579   -0.709466    0.194038
     11          1           0       -1.151226   -1.363604    1.836240
     12          1           0       -0.433568   -2.092515    0.363928
     13          1           0        2.118225    1.782296    1.077925
     14          1           0        3.387146    0.785131    0.382482
     15          1           0        2.398261    1.780097   -0.657313
     16          1           0        0.971734   -1.691899   -1.218657
     17          1           0        1.742563   -0.341541   -2.023603
     18          1           0        2.679080   -1.371746   -0.970778
 ---------------------------------------------------------------------
 Rotational constants (GHZ):      3.6018904      1.1893146      1.1103435
 Leave Link  202 at Thu Apr 26 14:02:54 2018, MaxMem=  671088640 cpu:       0.8
 (Enter /shared/apps/gaussian/G09_LINUX_LINDA/g09/l301.exe)
 Standard basis: 6-31G(d) (6D, 7F)
 Ernie: Thresh=  0.10000D-02 Tol=  0.10000D-05 Strict=F.
 There are   127 symmetry adapted basis functions of A   symmetry.
 Integral buffers will be    131072 words long.
 Raffenetti 2 integral format.
 Two-electron integral symmetry is turned on.
   127 basis functions,   240 primitive gaussians,   127 cartesian basis functions
    29 alpha electrons       28 beta electrons
       nuclear repulsion energy       302.6011348929 Hartrees.
 IExCor=    0 DFT=F Ex=HF Corr=None ExCW=0 ScaHFX=  1.000000
 ScaDFX=  1.000000  1.000000  1.000000  1.000000 ScalE2=  1.000000  1.000000
 IRadAn=      0 IRanWt=     -1 IRanGd=            0 ICorTp=0
 NAtoms=   18 NActive=   18 NUniq=   18 SFac= 1.00D+00 NAtFMM=   50 NAOKFM=F Big=F
 Leave Link  301 at Thu Apr 26 14:02:54 2018, MaxMem=  671088640 cpu:       1.0
 (Enter /shared/apps/gaussian/G09_LINUX_LINDA/g09/l302.exe)
 NPDir=0 NMtPBC=     1 NCelOv=     1 NCel=       1 NClECP=     1 NCelD=      1
         NCelK=      1 NCelE2=     1 NClLst=     1 CellRange=     0.0.
 One-electron integrals computed using PRISM.
 NBasis=   127 RedAO= T  NBF=   127
 NBsUse=   127 1.00D-06 NBFU=   127
 Leave Link  302 at Thu Apr 26 14:02:55 2018, MaxMem=  671088640 cpu:       6.7
 (Enter /shared/apps/gaussian/G09_LINUX_LINDA/g09/l303.exe)
 DipDrv:  MaxL=1.
 Leave Link  303 at Thu Apr 26 14:02:55 2018, MaxMem=  671088640 cpu:       1.8
 (Enter /shared/apps/gaussian/G09_LINUX_LINDA/g09/l401.exe)
 Harris functional with IExCor=  205 diagonalized for initial guess.
 ExpMin= 1.61D-01 ExpMax= 5.48D+03 ExpMxC= 8.25D+02 IAcc=1 IRadAn=         1 AccDes= 0.00D+00
 HarFok:  IExCor=  205 AccDes= 0.00D+00 IRadAn=         1 IDoV= 1
 ScaDFX=  1.000000  1.000000  1.000000  1.000000
 FoFCou: FMM=F IPFlag=           0 FMFlag=      100000 FMFlg1=           0
         NFxFlg=           0 DoJE=T BraDBF=F KetDBF=T FulRan=T
         Omega=  0.000000  0.000000  1.000000  0.000000  0.000000 ICntrl=     500 IOpCl=  0
         NMat0=    1 NMatS0=    1 NMatT0=    0 NMatD0=    1 NMtDS0=    0 NMtDT0=    0
         I1Cent=           4 NGrid=           0.
 Petite list used in FoFCou.
 Harris En= -345.812641106234    
 Initial guess orbital symmetries:
 Alpha Orbitals:
       Occupied  (A) (A) (A) (A) (A) (A) (A) (A) (A) (A) (A) (A)
                 (A) (A) (A) (A) (A) (A) (A) (A) (A) (A) (A) (A)
                 (A) (A) (A) (A) (A)
       Virtual   (A) (A) (A) (A) (A) (A) (A) (A) (A) (A) (A) (A)
                 (A) (A) (A) (A) (A) (A) (A) (A) (A) (A) (A) (A)
                 (A) (A) (A) (A) (A) (A) (A) (A) (A) (A) (A) (A)
                 (A) (A) (A) (A) (A) (A) (A) (A) (A) (A) (A) (A)
                 (A) (A) (A) (A) (A) (A) (A) (A) (A) (A) (A) (A)
                 (A) (A) (A) (A) (A) (A) (A) (A) (A) (A) (A) (A)
                 (A) (A) (A) (A) (A) (A) (A) (A) (A) (A) (A) (A)
                 (A) (A) (A) (A) (A) (A) (A) (A) (A) (A) (A) (A)
                 (A) (A)
 Beta  Orbitals:
       Occupied  (A) (A) (A) (A) (A) (A) (A) (A) (A) (A) (A) (A)
                 (A) (A) (A) (A) (A) (A) (A) (A) (A) (A) (A) (A)
                 (A) (A) (A) (A)
       Virtual   (A) (A) (A) (A) (A) (A) (A) (A) (A) (A) (A) (A)
                 (A) (A) (A) (A) (A) (A) (A) (A) (A) (A) (A) (A)
                 (A) (A) (A) (A) (A) (A) (A) (A) (A) (A) (A) (A)
                 (A) (A) (A) (A) (A) (A) (A) (A) (A) (A) (A) (A)
                 (A) (A) (A) (A) (A) (A) (A) (A) (A) (A) (A) (A)
                 (A) (A) (A) (A) (A) (A) (A) (A) (A) (A) (A) (A)
                 (A) (A) (A) (A) (A) (A) (A) (A) (A) (A) (A) (A)
                 (A) (A) (A) (A) (A) (A) (A) (A) (A) (A) (A) (A)
                 (A) (A) (A)
 The electronic state of the initial guess is 2-A.
 Initial guess <Sx>= 0.0000 <Sy>= 0.0000 <Sz>= 0.5000 <S**2>= 0.7500 S= 0.5000
 Leave Link  401 at Thu Apr 26 14:02:58 2018, MaxMem=  671088640 cpu:      26.6
 (Enter /shared/apps/gaussian/G09_LINUX_LINDA/g09/l502.exe)
 UHF open shell SCF:
 Requested convergence on RMS density matrix=1.00D-08 within 128 cycles.
 Requested convergence on MAX density matrix=1.00D-06.
 Requested convergence on             energy=1.00D-06.
 No special actions if energy rises.
 Using DIIS extrapolation, IDIIS=  1040.
 Integral symmetry usage will be decided dynamically.
 Keep R1 and R2 ints in memory in canonical form, NReq=67191093.
 IEnd=       70048 IEndB=       70048 NGot=   671088640 MDV=   604978949
 LenX=   604978949 LenY=   604962379
 Symmetry not used in FoFDir.
 MinBra= 0 MaxBra= 2 Meth= 1.
 IRaf=       0 NMat=   1 IRICut=       1 DoRegI=T DoRafI=F ISym2E= 0 JSym2E=0.

 Cycle   1  Pass 1  IDiag  1:
 E= -344.874946029887    
 DIIS: error= 5.77D-02 at cycle   1 NSaved=   1.
 NSaved= 1 IEnMin= 1 EnMin= -344.874946029887     IErMin= 1 ErrMin= 5.77D-02
 ErrMax= 5.77D-02 EMaxC= 1.00D-01 BMatC= 1.99D+00 BMatP= 1.99D+00
 IDIUse=3 WtCom= 4.23D-01 WtEn= 5.77D-01
 Coeff-Com:  0.100D+01
 Coeff-En:   0.100D+01
 Coeff:      0.100D+01
 Gap=     0.577 Goal=   None    Shift=    0.000
 Gap=     0.532 Goal=   None    Shift=    0.000
 GapD=    0.532 DampG=2.000 DampE=0.500 DampFc=1.0000 IDamp=-1.
 RMSDP=5.65D-03 MaxDP=1.13D-01              OVMax= 2.01D-01

 Cycle   2  Pass 1  IDiag  1:
 E= -345.189771569369     Delta-E=       -0.314825539482 Rises=F Damp=F
 DIIS: error= 1.62D-02 at cycle   2 NSaved=   2.
 NSaved= 2 IEnMin= 2 EnMin= -345.189771569369     IErMin= 2 ErrMin= 1.62D-02
 ErrMax= 1.62D-02 EMaxC= 1.00D-01 BMatC= 2.14D-01 BMatP= 1.99D+00
 IDIUse=3 WtCom= 8.38D-01 WtEn= 1.62D-01
 Coeff-Com:  0.172D+00 0.828D+00
 Coeff-En:   0.000D+00 0.100D+01
 Coeff:      0.144D+00 0.856D+00
 Gap=     0.567 Goal=   None    Shift=    0.000
 Gap=     0.352 Goal=   None    Shift=    0.000
 RMSDP=2.47D-03 MaxDP=4.20D-02 DE=-3.15D-01 OVMax= 8.64D-02

 Cycle   3  Pass 1  IDiag  1:
 E= -345.242821327561     Delta-E=       -0.053049758193 Rises=F Damp=F
 DIIS: error= 6.37D-03 at cycle   3 NSaved=   3.
 NSaved= 3 IEnMin= 3 EnMin= -345.242821327561     IErMin= 3 ErrMin= 6.37D-03
 ErrMax= 6.37D-03 EMaxC= 1.00D-01 BMatC= 1.83D-02 BMatP= 2.14D-01
 IDIUse=3 WtCom= 9.36D-01 WtEn= 6.37D-02
 Coeff-Com: -0.200D-01 0.144D+00 0.876D+00
 Coeff-En:   0.000D+00 0.000D+00 0.100D+01
 Coeff:     -0.187D-01 0.135D+00 0.884D+00
 Gap=     0.498 Goal=   None    Shift=    0.000
 Gap=     0.359 Goal=   None    Shift=    0.000
 RMSDP=6.77D-04 MaxDP=1.59D-02 DE=-5.30D-02 OVMax= 5.04D-02

 Cycle   4  Pass 1  IDiag  1:
 E= -345.250998609003     Delta-E=       -0.008177281441 Rises=F Damp=F
 DIIS: error= 4.04D-03 at cycle   4 NSaved=   4.
 NSaved= 4 IEnMin= 4 EnMin= -345.250998609003     IErMin= 4 ErrMin= 4.04D-03
 ErrMax= 4.04D-03 EMaxC= 1.00D-01 BMatC= 3.86D-03 BMatP= 1.83D-02
 IDIUse=3 WtCom= 9.60D-01 WtEn= 4.04D-02
 Coeff-Com: -0.709D-02-0.187D-01 0.953D-01 0.931D+00
 Coeff-En:   0.000D+00 0.000D+00 0.000D+00 0.100D+01
 Coeff:     -0.681D-02-0.180D-01 0.914D-01 0.933D+00
 Gap=     0.497 Goal=   None    Shift=    0.000
 Gap=     0.376 Goal=   None    Shift=    0.000
 RMSDP=3.77D-04 MaxDP=1.18D-02 DE=-8.18D-03 OVMax= 2.90D-02

 Cycle   5  Pass 1  IDiag  1:
 E= -345.254075140286     Delta-E=       -0.003076531283 Rises=F Damp=F
 DIIS: error= 2.30D-03 at cycle   5 NSaved=   5.
 NSaved= 5 IEnMin= 5 EnMin= -345.254075140286     IErMin= 5 ErrMin= 2.30D-03
 ErrMax= 2.30D-03 EMaxC= 1.00D-01 BMatC= 1.97D-03 BMatP= 3.86D-03
 IDIUse=3 WtCom= 9.77D-01 WtEn= 2.30D-02
 Coeff-Com:  0.121D-01-0.646D-01-0.441D+00-0.138D+00 0.163D+01
 Coeff-En:   0.000D+00 0.000D+00 0.000D+00 0.000D+00 0.100D+01
 Coeff:      0.118D-01-0.632D-01-0.431D+00-0.135D+00 0.162D+01
 Gap=     0.508 Goal=   None    Shift=    0.000
 Gap=     0.403 Goal=   None    Shift=    0.000
 RMSDP=5.91D-04 MaxDP=1.95D-02 DE=-3.08D-03 OVMax= 4.20D-02

 Cycle   6  Pass 1  IDiag  1:
 E= -345.256992055258     Delta-E=       -0.002916914972 Rises=F Damp=F
 DIIS: error= 1.11D-03 at cycle   6 NSaved=   6.
 NSaved= 6 IEnMin= 6 EnMin= -345.256992055258     IErMin= 6 ErrMin= 1.11D-03
 ErrMax= 1.11D-03 EMaxC= 1.00D-01 BMatC= 5.07D-04 BMatP= 1.97D-03
 IDIUse=3 WtCom= 9.89D-01 WtEn= 1.11D-02
 Coeff-Com:  0.289D-02 0.205D-02-0.534D-01-0.170D+00 0.187D+00 0.103D+01
 Coeff-En:   0.000D+00 0.000D+00 0.000D+00 0.000D+00 0.000D+00 0.100D+01
 Coeff:      0.286D-02 0.202D-02-0.528D-01-0.168D+00 0.185D+00 0.103D+01
 Gap=     0.511 Goal=   None    Shift=    0.000
 Gap=     0.412 Goal=   None    Shift=    0.000
 RMSDP=2.09D-04 MaxDP=4.56D-03 DE=-2.92D-03 OVMax= 1.66D-02

 Cycle   7  Pass 1  IDiag  1:
 E= -345.257623188480     Delta-E=       -0.000631133222 Rises=F Damp=F
 DIIS: error= 7.76D-04 at cycle   7 NSaved=   7.
 NSaved= 7 IEnMin= 7 EnMin= -345.257623188480     IErMin= 7 ErrMin= 7.76D-04
 ErrMax= 7.76D-04 EMaxC= 1.00D-01 BMatC= 2.63D-04 BMatP= 5.07D-04
 IDIUse=3 WtCom= 9.92D-01 WtEn= 7.76D-03
 Coeff-Com: -0.355D-02 0.234D-01 0.137D+00 0.315D-01-0.536D+00 0.921D-01
 Coeff-Com:  0.126D+01
 Coeff-En:   0.000D+00 0.000D+00 0.000D+00 0.000D+00 0.000D+00 0.000D+00
 Coeff-En:   0.100D+01
 Coeff:     -0.352D-02 0.232D-01 0.136D+00 0.313D-01-0.532D+00 0.914D-01
 Coeff:      0.125D+01
 Gap=     0.514 Goal=   None    Shift=    0.000
 Gap=     0.416 Goal=   None    Shift=    0.000
 RMSDP=2.06D-04 MaxDP=4.02D-03 DE=-6.31D-04 OVMax= 1.86D-02

 Cycle   8  Pass 1  IDiag  1:
 E= -345.258111002909     Delta-E=       -0.000487814429 Rises=F Damp=F
 DIIS: error= 6.42D-04 at cycle   8 NSaved=   8.
 NSaved= 8 IEnMin= 8 EnMin= -345.258111002909     IErMin= 8 ErrMin= 6.42D-04
 ErrMax= 6.42D-04 EMaxC= 1.00D-01 BMatC= 1.38D-04 BMatP= 2.63D-04
 IDIUse=3 WtCom= 9.94D-01 WtEn= 6.42D-03
 Coeff-Com:  0.234D-02-0.241D-01-0.114D+00 0.653D-01 0.383D+00-0.578D+00
 Coeff-Com: -0.120D+01 0.247D+01
 Coeff-En:   0.000D+00 0.000D+00 0.000D+00 0.000D+00 0.000D+00 0.000D+00
 Coeff-En:   0.000D+00 0.100D+01
 Coeff:      0.233D-02-0.239D-01-0.113D+00 0.649D-01 0.380D+00-0.574D+00
 Coeff:     -0.119D+01 0.246D+01
 Gap=     0.520 Goal=   None    Shift=    0.000
 Gap=     0.422 Goal=   None    Shift=    0.000
 RMSDP=3.15D-04 MaxDP=6.01D-03 DE=-4.88D-04 OVMax= 2.97D-02

 Cycle   9  Pass 1  IDiag  1:
 E= -345.258603122835     Delta-E=       -0.000492119927 Rises=F Damp=F
 DIIS: error= 4.10D-04 at cycle   9 NSaved=   9.
 NSaved= 9 IEnMin= 9 EnMin= -345.258603122835     IErMin= 9 ErrMin= 4.10D-04
 ErrMax= 4.10D-04 EMaxC= 1.00D-01 BMatC= 4.01D-05 BMatP= 1.38D-04
 IDIUse=3 WtCom= 9.96D-01 WtEn= 4.10D-03
 Coeff-Com:  0.134D-02-0.485D-02-0.409D-01-0.554D-01 0.213D+00 0.139D+00
 Coeff-Com: -0.186D+00-0.892D+00 0.183D+01
 Coeff-En:   0.000D+00 0.000D+00 0.000D+00 0.000D+00 0.000D+00 0.000D+00
 Coeff-En:   0.000D+00 0.000D+00 0.100D+01
 Coeff:      0.134D-02-0.483D-02-0.408D-01-0.552D-01 0.213D+00 0.138D+00
 Coeff:     -0.185D+00-0.888D+00 0.182D+01
 Gap=     0.524 Goal=   None    Shift=    0.000
 Gap=     0.425 Goal=   None    Shift=    0.000
 RMSDP=2.03D-04 MaxDP=3.97D-03 DE=-4.92D-04 OVMax= 1.87D-02

 Cycle  10  Pass 1  IDiag  1:
 E= -345.258740973237     Delta-E=       -0.000137850402 Rises=F Damp=F
 DIIS: error= 1.61D-04 at cycle  10 NSaved=  10.
 NSaved=10 IEnMin=10 EnMin= -345.258740973237     IErMin=10 ErrMin= 1.61D-04
 ErrMax= 1.61D-04 EMaxC= 1.00D-01 BMatC= 6.26D-06 BMatP= 4.01D-05
 IDIUse=3 WtCom= 9.98D-01 WtEn= 1.61D-03
 Coeff-Com: -0.431D-03 0.409D-02 0.215D-01-0.201D-01-0.553D-01 0.865D-01
 Coeff-Com:  0.198D+00-0.283D+00-0.237D+00 0.129D+01
 Coeff-En:   0.000D+00 0.000D+00 0.000D+00 0.000D+00 0.000D+00 0.000D+00
 Coeff-En:   0.000D+00 0.000D+00 0.000D+00 0.100D+01
 Coeff:     -0.430D-03 0.408D-02 0.214D-01-0.201D-01-0.552D-01 0.864D-01
 Coeff:      0.197D+00-0.282D+00-0.237D+00 0.129D+01
 Gap=     0.525 Goal=   None    Shift=    0.000
 Gap=     0.425 Goal=   None    Shift=    0.000
 RMSDP=4.20D-05 MaxDP=8.12D-04 DE=-1.38D-04 OVMax= 4.09D-03

 Cycle  11  Pass 1  IDiag  1:
 E= -345.258752481315     Delta-E=       -0.000011508078 Rises=F Damp=F
 DIIS: error= 9.57D-05 at cycle  11 NSaved=  11.
 NSaved=11 IEnMin=11 EnMin= -345.258752481315     IErMin=11 ErrMin= 9.57D-05
 ErrMax= 9.57D-05 EMaxC= 1.00D-01 BMatC= 1.93D-06 BMatP= 6.26D-06
 IDIUse=1 WtCom= 1.00D+00 WtEn= 0.00D+00
 Coeff-Com: -0.261D-03 0.924D-03 0.930D-02 0.408D-02-0.347D-01-0.226D-01
 Coeff-Com:  0.591D-02 0.211D+00-0.375D+00-0.120D+00 0.132D+01
 Coeff:     -0.261D-03 0.924D-03 0.930D-02 0.408D-02-0.347D-01-0.226D-01
 Coeff:      0.591D-02 0.211D+00-0.375D+00-0.120D+00 0.132D+01
 Gap=     0.525 Goal=   None    Shift=    0.000
 Gap=     0.425 Goal=   None    Shift=    0.000
 RMSDP=2.26D-05 MaxDP=4.13D-04 DE=-1.15D-05 OVMax= 2.28D-03

 Cycle  12  Pass 1  IDiag  1:
 E= -345.258756019605     Delta-E=       -0.000003538290 Rises=F Damp=F
 DIIS: error= 5.89D-05 at cycle  12 NSaved=  12.
 NSaved=12 IEnMin=12 EnMin= -345.258756019605     IErMin=12 ErrMin= 5.89D-05
 ErrMax= 5.89D-05 EMaxC= 1.00D-01 BMatC= 6.93D-07 BMatP= 1.93D-06
 IDIUse=1 WtCom= 1.00D+00 WtEn= 0.00D+00
 Coeff-Com:  0.210D-03-0.137D-02-0.800D-02-0.499D-02 0.372D-01-0.989D-02
 Coeff-Com: -0.680D-01-0.588D-02 0.211D+00-0.302D+00-0.468D+00 0.162D+01
 Coeff:      0.210D-03-0.137D-02-0.800D-02-0.499D-02 0.372D-01-0.989D-02
 Coeff:     -0.680D-01-0.588D-02 0.211D+00-0.302D+00-0.468D+00 0.162D+01
 Gap=     0.525 Goal=   None    Shift=    0.000
 Gap=     0.425 Goal=   None    Shift=    0.000
 RMSDP=1.56D-05 MaxDP=3.34D-04 DE=-3.54D-06 OVMax= 1.58D-03

 Cycle  13  Pass 1  IDiag  1:
 E= -345.258757377088     Delta-E=       -0.000001357483 Rises=F Damp=F
 DIIS: error= 3.27D-05 at cycle  13 NSaved=  13.
 NSaved=13 IEnMin=13 EnMin= -345.258757377088     IErMin=13 ErrMin= 3.27D-05
 ErrMax= 3.27D-05 EMaxC= 1.00D-01 BMatC= 2.34D-07 BMatP= 6.93D-07
 IDIUse=1 WtCom= 1.00D+00 WtEn= 0.00D+00
 Coeff-Com:  0.493D-04-0.907D-04-0.134D-02-0.386D-02 0.130D-01 0.570D-02
 Coeff-Com:  0.882D-02-0.697D-01 0.105D+00 0.857D-01-0.400D+00-0.204D+00
 Coeff-Com:  0.146D+01
 Coeff:      0.493D-04-0.907D-04-0.134D-02-0.386D-02 0.130D-01 0.570D-02
 Coeff:      0.882D-02-0.697D-01 0.105D+00 0.857D-01-0.400D+00-0.204D+00
 Coeff:      0.146D+01
 Gap=     0.525 Goal=   None    Shift=    0.000
 Gap=     0.425 Goal=   None    Shift=    0.000
 RMSDP=8.94D-06 MaxDP=2.70D-04 DE=-1.36D-06 OVMax= 8.13D-04

 Cycle  14  Pass 1  IDiag  1:
 E= -345.258757820332     Delta-E=       -0.000000443244 Rises=F Damp=F
 DIIS: error= 1.74D-05 at cycle  14 NSaved=  14.
 NSaved=14 IEnMin=14 EnMin= -345.258757820332     IErMin=14 ErrMin= 1.74D-05
 ErrMax= 1.74D-05 EMaxC= 1.00D-01 BMatC= 6.86D-08 BMatP= 2.34D-07
 IDIUse=1 WtCom= 1.00D+00 WtEn= 0.00D+00
 Coeff-Com: -0.621D-04 0.404D-03 0.270D-02 0.179D-03-0.978D-02 0.287D-02
 Coeff-Com:  0.198D-01 0.424D-02-0.754D-01 0.109D+00 0.178D+00-0.608D+00
 Coeff-Com:  0.484D-01 0.133D+01
 Coeff:     -0.621D-04 0.404D-03 0.270D-02 0.179D-03-0.978D-02 0.287D-02
 Coeff:      0.198D-01 0.424D-02-0.754D-01 0.109D+00 0.178D+00-0.608D+00
 Coeff:      0.484D-01 0.133D+01
 Gap=     0.525 Goal=   None    Shift=    0.000
 Gap=     0.425 Goal=   None    Shift=    0.000
 RMSDP=5.19D-06 MaxDP=1.60D-04 DE=-4.43D-07 OVMax= 4.76D-04

 Cycle  15  Pass 1  IDiag  1:
 E= -345.258757949373     Delta-E=       -0.000000129041 Rises=F Damp=F
 DIIS: error= 7.33D-06 at cycle  15 NSaved=  15.
 NSaved=15 IEnMin=15 EnMin= -345.258757949373     IErMin=15 ErrMin= 7.33D-06
 ErrMax= 7.33D-06 EMaxC= 1.00D-01 BMatC= 1.63D-08 BMatP= 6.86D-08
 IDIUse=1 WtCom= 1.00D+00 WtEn= 0.00D+00
 Coeff-Com:  0.119D-04-0.122D-03-0.510D-03 0.976D-04 0.530D-03-0.844D-03
 Coeff-Com: -0.108D-01 0.147D-01-0.563D-03-0.541D-01 0.433D-01 0.217D+00
 Coeff-Com: -0.330D+00-0.513D+00 0.163D+01
 Coeff:      0.119D-04-0.122D-03-0.510D-03 0.976D-04 0.530D-03-0.844D-03
 Coeff:     -0.108D-01 0.147D-01-0.563D-03-0.541D-01 0.433D-01 0.217D+00
 Coeff:     -0.330D+00-0.513D+00 0.163D+01
 Gap=     0.525 Goal=   None    Shift=    0.000
 Gap=     0.425 Goal=   None    Shift=    0.000
 RMSDP=3.05D-06 MaxDP=8.28D-05 DE=-1.29D-07 OVMax= 2.62D-04

 Cycle  16  Pass 1  IDiag  1:
 E= -345.258757981258     Delta-E=       -0.000000031886 Rises=F Damp=F
 DIIS: error= 5.59D-06 at cycle  16 NSaved=  16.
 NSaved=16 IEnMin=16 EnMin= -345.258757981258     IErMin=16 ErrMin= 5.59D-06
 ErrMax= 5.59D-06 EMaxC= 1.00D-01 BMatC= 3.92D-09 BMatP= 1.63D-08
 IDIUse=1 WtCom= 1.00D+00 WtEn= 0.00D+00
 Coeff-Com:  0.598D-05-0.287D-04-0.320D-03-0.819D-04 0.187D-02-0.855D-03
 Coeff-Com: -0.341D-03-0.294D-02 0.129D-01-0.705D-02-0.465D-01 0.819D-01
 Coeff-Com:  0.626D-01-0.165D+00-0.423D+00 0.149D+01
 Coeff:      0.598D-05-0.287D-04-0.320D-03-0.819D-04 0.187D-02-0.855D-03
 Coeff:     -0.341D-03-0.294D-02 0.129D-01-0.705D-02-0.465D-01 0.819D-01
 Coeff:      0.626D-01-0.165D+00-0.423D+00 0.149D+01
 Gap=     0.525 Goal=   None    Shift=    0.000
 Gap=     0.425 Goal=   None    Shift=    0.000
 RMSDP=1.10D-06 MaxDP=3.27D-05 DE=-3.19D-08 OVMax= 6.78D-05

 Cycle  17  Pass 1  IDiag  1:
 E= -345.258757986893     Delta-E=       -0.000000005634 Rises=F Damp=F
 DIIS: error= 2.87D-06 at cycle  17 NSaved=  17.
 NSaved=17 IEnMin=17 EnMin= -345.258757986893     IErMin=17 ErrMin= 2.87D-06
 ErrMax= 2.87D-06 EMaxC= 1.00D-01 BMatC= 1.06D-09 BMatP= 3.92D-09
 IDIUse=1 WtCom= 1.00D+00 WtEn= 0.00D+00
 Coeff-Com: -0.344D-05 0.344D-04 0.148D-03-0.270D-04-0.320D-03 0.396D-03
 Coeff-Com:  0.299D-02-0.407D-02-0.122D-02 0.151D-01-0.785D-02-0.645D-01
 Coeff-Com:  0.787D-01 0.150D+00-0.386D+00-0.113D+00 0.133D+01
 Coeff:     -0.344D-05 0.344D-04 0.148D-03-0.270D-04-0.320D-03 0.396D-03
 Coeff:      0.299D-02-0.407D-02-0.122D-02 0.151D-01-0.785D-02-0.645D-01
 Coeff:      0.787D-01 0.150D+00-0.386D+00-0.113D+00 0.133D+01
 Gap=     0.525 Goal=   None    Shift=    0.000
 Gap=     0.425 Goal=   None    Shift=    0.000
 RMSDP=4.49D-07 MaxDP=1.63D-05 DE=-5.63D-09 OVMax= 2.61D-05

 Cycle  18  Pass 1  IDiag  1:
 E= -345.258757988394     Delta-E=       -0.000000001501 Rises=F Damp=F
 DIIS: error= 1.73D-06 at cycle  18 NSaved=  18.
 NSaved=18 IEnMin=18 EnMin= -345.258757988394     IErMin=18 ErrMin= 1.73D-06
 ErrMax= 1.73D-06 EMaxC= 1.00D-01 BMatC= 4.06D-10 BMatP= 1.06D-09
 IDIUse=1 WtCom= 1.00D+00 WtEn= 0.00D+00
 Coeff-Com: -0.659D-06-0.145D-05 0.422D-04 0.555D-04-0.567D-03 0.326D-03
 Coeff-Com: -0.761D-03 0.174D-02-0.342D-02-0.286D-02 0.157D-01-0.214D-02
 Coeff-Com: -0.405D-01-0.906D-02 0.242D+00-0.316D+00-0.626D+00 0.174D+01
 Coeff:     -0.659D-06-0.145D-05 0.422D-04 0.555D-04-0.567D-03 0.326D-03
 Coeff:     -0.761D-03 0.174D-02-0.342D-02-0.286D-02 0.157D-01-0.214D-02
 Coeff:     -0.405D-01-0.906D-02 0.242D+00-0.316D+00-0.626D+00 0.174D+01
 Gap=     0.525 Goal=   None    Shift=    0.000
 Gap=     0.425 Goal=   None    Shift=    0.000
 RMSDP=3.74D-07 MaxDP=1.05D-05 DE=-1.50D-09 OVMax= 2.48D-05

 Cycle  19  Pass 1  IDiag  1:
 E= -345.258757989092     Delta-E=       -0.000000000699 Rises=F Damp=F
 DIIS: error= 9.08D-07 at cycle  19 NSaved=  19.
 NSaved=19 IEnMin=19 EnMin= -345.258757989092     IErMin=19 ErrMin= 9.08D-07
 ErrMax= 9.08D-07 EMaxC= 1.00D-01 BMatC= 1.43D-10 BMatP= 4.06D-10
 IDIUse=1 WtCom= 1.00D+00 WtEn= 0.00D+00
 Coeff-Com: -0.786D-06 0.490D-05 0.222D-04 0.702D-04-0.704D-04-0.278D-03
 Coeff-Com:  0.140D-03 0.114D-02-0.486D-03-0.149D-02 0.340D-03 0.140D-01
 Coeff-Com: -0.954D-02-0.315D-01 0.163D-01 0.195D+00-0.286D+00-0.699D+00
 Coeff-Com:  0.180D+01
 Coeff:     -0.786D-06 0.490D-05 0.222D-04 0.702D-04-0.704D-04-0.278D-03
 Coeff:      0.140D-03 0.114D-02-0.486D-03-0.149D-02 0.340D-03 0.140D-01
 Coeff:     -0.954D-02-0.315D-01 0.163D-01 0.195D+00-0.286D+00-0.699D+00
 Coeff:      0.180D+01
 Gap=     0.525 Goal=   None    Shift=    0.000
 Gap=     0.425 Goal=   None    Shift=    0.000
 RMSDP=2.60D-07 MaxDP=9.15D-06 DE=-6.99D-10 OVMax= 1.27D-05

 Cycle  20  Pass 1  IDiag  1:
 E= -345.258757989367     Delta-E=       -0.000000000275 Rises=F Damp=F
 DIIS: error= 4.05D-07 at cycle  20 NSaved=  20.
 NSaved=20 IEnMin=20 EnMin= -345.258757989367     IErMin=20 ErrMin= 4.05D-07
 ErrMax= 4.05D-07 EMaxC= 1.00D-01 BMatC= 3.24D-11 BMatP= 1.43D-10
 IDIUse=1 WtCom= 1.00D+00 WtEn= 0.00D+00
 Coeff-Com:  0.235D-07 0.126D-05-0.720D-05-0.236D-04 0.117D-03 0.310D-04
 Coeff-Com:  0.376D-03-0.120D-02 0.113D-02 0.189D-02-0.527D-02-0.645D-02
 Coeff-Com:  0.202D-01 0.138D-01-0.900D-01 0.434D-01 0.298D+00-0.378D+00
 Coeff-Com: -0.495D+00 0.160D+01
 Coeff:      0.235D-07 0.126D-05-0.720D-05-0.236D-04 0.117D-03 0.310D-04
 Coeff:      0.376D-03-0.120D-02 0.113D-02 0.189D-02-0.527D-02-0.645D-02
 Coeff:      0.202D-01 0.138D-01-0.900D-01 0.434D-01 0.298D+00-0.378D+00
 Coeff:     -0.495D+00 0.160D+01
 Gap=     0.525 Goal=   None    Shift=    0.000
 Gap=     0.425 Goal=   None    Shift=    0.000
 RMSDP=1.27D-07 MaxDP=4.01D-06 DE=-2.75D-10 OVMax= 7.14D-06

 Cycle  21  Pass 1  IDiag  1:
 E= -345.258757989431     Delta-E=       -0.000000000064 Rises=F Damp=F
 DIIS: error= 1.48D-07 at cycle  21 NSaved=  20.
 NSaved=20 IEnMin=20 EnMin= -345.258757989431     IErMin=20 ErrMin= 1.48D-07
 ErrMax= 1.48D-07 EMaxC= 1.00D-01 BMatC= 4.01D-12 BMatP= 3.24D-11
 IDIUse=1 WtCom= 1.00D+00 WtEn= 0.00D+00
 Coeff-Com:  0.862D-07 0.124D-05-0.644D-05-0.206D-04 0.529D-04 0.101D-04
 Coeff-Com: -0.126D-03-0.700D-04 0.281D-03 0.389D-03-0.277D-02 0.167D-02
 Coeff-Com:  0.281D-02 0.357D-02-0.339D-01 0.268D-01 0.137D+00-0.213D+00
 Coeff-Com: -0.264D+00 0.134D+01
 Coeff:      0.862D-07 0.124D-05-0.644D-05-0.206D-04 0.529D-04 0.101D-04
 Coeff:     -0.126D-03-0.700D-04 0.281D-03 0.389D-03-0.277D-02 0.167D-02
 Coeff:      0.281D-02 0.357D-02-0.339D-01 0.268D-01 0.137D+00-0.213D+00
 Coeff:     -0.264D+00 0.134D+01
 Gap=     0.525 Goal=   None    Shift=    0.000
 Gap=     0.425 Goal=   None    Shift=    0.000
 RMSDP=3.62D-08 MaxDP=1.06D-06 DE=-6.41D-11 OVMax= 2.20D-06

 Cycle  22  Pass 1  IDiag  1:
 E= -345.258757989434     Delta-E=       -0.000000000003 Rises=F Damp=F
 DIIS: error= 4.01D-08 at cycle  22 NSaved=  20.
 NSaved=20 IEnMin=20 EnMin= -345.258757989434     IErMin=20 ErrMin= 4.01D-08
 ErrMax= 4.01D-08 EMaxC= 1.00D-01 BMatC= 6.59D-13 BMatP= 4.01D-12
 IDIUse=1 WtCom= 1.00D+00 WtEn= 0.00D+00
 Coeff-Com:  0.133D-05 0.485D-05-0.154D-04-0.115D-04-0.416D-04 0.184D-03
 Coeff-Com: -0.170D-03-0.270D-03 0.748D-03 0.105D-02-0.271D-02-0.243D-02
 Coeff-Com:  0.132D-01-0.555D-02-0.421D-01 0.466D-01 0.853D-01-0.219D+00
 Coeff-Com: -0.741D-01 0.120D+01
 Coeff:      0.133D-05 0.485D-05-0.154D-04-0.115D-04-0.416D-04 0.184D-03
 Coeff:     -0.170D-03-0.270D-03 0.748D-03 0.105D-02-0.271D-02-0.243D-02
 Coeff:      0.132D-01-0.555D-02-0.421D-01 0.466D-01 0.853D-01-0.219D+00
 Coeff:     -0.741D-01 0.120D+01
 Gap=     0.525 Goal=   None    Shift=    0.000
 Gap=     0.425 Goal=   None    Shift=    0.000
 RMSDP=1.16D-08 MaxDP=2.43D-07 DE=-2.50D-12 OVMax= 8.61D-07

 Cycle  23  Pass 1  IDiag  1:
 E= -345.258757989435     Delta-E=       -0.000000000001 Rises=F Damp=F
 DIIS: error= 1.90D-08 at cycle  23 NSaved=  20.
 NSaved=20 IEnMin=20 EnMin= -345.258757989435     IErMin=20 ErrMin= 1.90D-08
 ErrMax= 1.90D-08 EMaxC= 1.00D-01 BMatC= 1.40D-13 BMatP= 6.59D-13
 IDIUse=1 WtCom= 1.00D+00 WtEn= 0.00D+00
 Coeff-Com:  0.533D-06 0.236D-05-0.759D-05 0.169D-05 0.780D-05 0.178D-04
 Coeff-Com: -0.469D-04-0.915D-04 0.435D-03-0.282D-03-0.397D-03-0.772D-03
 Coeff-Com:  0.526D-02-0.236D-02-0.246D-01 0.272D-01 0.679D-01-0.234D+00
 Coeff-Com: -0.125D+00 0.129D+01
 Coeff:      0.533D-06 0.236D-05-0.759D-05 0.169D-05 0.780D-05 0.178D-04
 Coeff:     -0.469D-04-0.915D-04 0.435D-03-0.282D-03-0.397D-03-0.772D-03
 Coeff:      0.526D-02-0.236D-02-0.246D-01 0.272D-01 0.679D-01-0.234D+00
 Coeff:     -0.125D+00 0.129D+01
 Gap=     0.525 Goal=   None    Shift=    0.000
 Gap=     0.425 Goal=   None    Shift=    0.000
 RMSDP=4.37D-09 MaxDP=1.02D-07 DE=-5.68D-13 OVMax= 1.56D-07

 SCF Done:  E(UHF) =  -345.258757989     A.U. after   23 cycles
             Convg  =    0.4367D-08             -V/T =  2.0014
 <Sx>= 0.0000 <Sy>= 0.0000 <Sz>= 0.5000 <S**2>= 1.0009 S= 0.6184
 <L.S>= 0.000000000000E+00
 KE= 3.447789827201D+02 PE=-1.415015558349D+03 EE= 4.223766827462D+02
 Annihilation of the first spin contaminant:
 S**2 before annihilation     1.0009,   after     0.7764
 Leave Link  502 at Thu Apr 26 14:03:51 2018, MaxMem=  671088640 cpu:     525.6
 (Enter /shared/apps/gaussian/G09_LINUX_LINDA/g09/l801.exe)
 Range of M.O.s used for correlation:     1   127
 NBasis=   127 NAE=    29 NBE=    28 NFC=     0 NFV=     0
 NROrb=    127 NOA=    29 NOB=    28 NVA=    98 NVB=    99
 Leave Link  801 at Thu Apr 26 14:03:51 2018, MaxMem=  671088640 cpu:       0.4
 (Enter /shared/apps/gaussian/G09_LINUX_LINDA/g09/l1101.exe)
 Using compressed storage, NAtomX=    18.
 Will process  19 centers per pass.
 Leave Link 1101 at Thu Apr 26 14:03:52 2018, MaxMem=  671088640 cpu:      10.9
 (Enter /shared/apps/gaussian/G09_LINUX_LINDA/g09/l1102.exe)
 Symmetrizing basis deriv contribution to polar:
 IMax=3 JMax=2 DiffMx= 0.00D+00
 Leave Link 1102 at Thu Apr 26 14:03:53 2018, MaxMem=  671088640 cpu:       1.0
 (Enter /shared/apps/gaussian/G09_LINUX_LINDA/g09/l1110.exe)
 Forming Gx(P) for the SCF density, NAtomX=    18.
 Integral derivatives from FoFDir/FoFCou, PRISM(SPDF).
 Do as many integral derivatives as possible in FoFDir.
 G2DrvN: MDV=     671088392.
 G2DrvN: will do    19 centers at a time, making    1 passes doing MaxLOS=2.
 Calling FoFCou, ICntrl=  3107 FMM=F I1Cent=   0 AccDes= 0.00D+00.
 FoFCou: FMM=F IPFlag=           0 FMFlag=      100000 FMFlg1=           0
         NFxFlg=           0 DoJE=F BraDBF=F KetDBF=F FulRan=T
         Omega=  0.000000  0.000000  1.000000  0.000000  0.000000 ICntrl=    3107 IOpCl=  1
         NMat0=    1 NMatS0=    1 NMatT0=    0 NMatD0=    1 NMtDS0=    0 NMtDT0=    0
         I1Cent=           0 NGrid=           0.
 Symmetry not used in FoFCou.
 FoFDir/FoFCou used for L=0 through L=2.
 End of G2Drv Frequency-dependent properties file   721 does not exist.
 End of G2Drv Frequency-dependent properties file   722 does not exist.
 Leave Link 1110 at Thu Apr 26 14:03:56 2018, MaxMem=  671088640 cpu:      29.8
 (Enter /shared/apps/gaussian/G09_LINUX_LINDA/g09/l1002.exe)
 Minotr:  UHF open shell wavefunction.
          IDoAtm=111111111111111111
          Direct CPHF calculation.
          Differentiating once with respect to nuclear coordinates.
          Requested convergence is 1.0D-06 RMS, and 1.0D-05 maximum.
          Secondary convergence is 1.0D-12 RMS, and 1.0D-12 maximum.
          NewPWx=T KeepS1=F KeepF1=F KeepIn=T MapXYZ=F SortEE=F KeepMc=T.
          MDV=     671088456 using IRadAn=       2.
          Keep R1 and R2 ints in memory in canonical form, NReq=66894031.
 Symmetry not used in FoFDir.
 MinBra= 0 MaxBra= 2 Meth= 1.
 IRaf=       0 NMat=   1 IRICut=       1 DoRegI=T DoRafI=F ISym2E= 0 JSym2E=0.
          Solving linear equations simultaneously, MaxMat=       0.
          There are    57 degrees of freedom in the 1st order CPHF.  IDoFFX=5.
     51 vectors produced by pass  0 Test12= 9.85D-11 1.75D-07 XBig12= 1.10D-01 1.48D-01.
 AX will form    51 AO Fock derivatives at one time.
     51 vectors produced by pass  1 Test12= 9.85D-11 1.75D-07 XBig12= 9.30D-03 4.92D-02.
     51 vectors produced by pass  2 Test12= 9.85D-11 1.75D-07 XBig12= 6.37D-04 4.76D-03.
     51 vectors produced by pass  3 Test12= 9.85D-11 1.75D-07 XBig12= 2.09D-05 9.45D-04.
     51 vectors produced by pass  4 Test12= 9.85D-11 1.75D-07 XBig12= 4.13D-07 7.96D-05.
     31 vectors produced by pass  5 Test12= 9.85D-11 1.75D-07 XBig12= 5.13D-09 9.67D-06.
      8 vectors produced by pass  6 Test12= 9.85D-11 1.75D-07 XBig12= 6.62D-11 1.13D-06.
 Inverted reduced A of dimension   294 with in-core refinement.
 End of Minotr Frequency-dependent properties file   721 does not exist.
 End of Minotr Frequency-dependent properties file   722 does not exist.
 Leave Link 1002 at Thu Apr 26 14:04:20 2018, MaxMem=  671088640 cpu:     235.5
 (Enter /shared/apps/gaussian/G09_LINUX_LINDA/g09/l601.exe)
 Copying SCF densities to generalized density rwf, IOpCl= 1 IROHF=0.

 **********************************************************************

            Population analysis using the SCF density.

 **********************************************************************

 Orbital symmetries:
 Alpha Orbitals:
       Occupied  (A) (A) (A) (A) (A) (A) (A) (A) (A) (A) (A) (A)
                 (A) (A) (A) (A) (A) (A) (A) (A) (A) (A) (A) (A)
                 (A) (A) (A) (A) (A)
       Virtual   (A) (A) (A) (A) (A) (A) (A) (A) (A) (A) (A) (A)
                 (A) (A) (A) (A) (A) (A) (A) (A) (A) (A) (A) (A)
                 (A) (A) (A) (A) (A) (A) (A) (A) (A) (A) (A) (A)
                 (A) (A) (A) (A) (A) (A) (A) (A) (A) (A) (A) (A)
                 (A) (A) (A) (A) (A) (A) (A) (A) (A) (A) (A) (A)
                 (A) (A) (A) (A) (A) (A) (A) (A) (A) (A) (A) (A)
                 (A) (A) (A) (A) (A) (A) (A) (A) (A) (A) (A) (A)
                 (A) (A) (A) (A) (A) (A) (A) (A) (A) (A) (A) (A)
                 (A) (A)
 Beta  Orbitals:
       Occupied  (A) (A) (A) (A) (A) (A) (A) (A) (A) (A) (A) (A)
                 (A) (A) (A) (A) (A) (A) (A) (A) (A) (A) (A) (A)
                 (A) (A) (A) (A)
       Virtual   (A) (A) (A) (A) (A) (A) (A) (A) (A) (A) (A) (A)
                 (A) (A) (A) (A) (A) (A) (A) (A) (A) (A) (A) (A)
                 (A) (A) (A) (A) (A) (A) (A) (A) (A) (A) (A) (A)
                 (A) (A) (A) (A) (A) (A) (A) (A) (A) (A) (A) (A)
                 (A) (A) (A) (A) (A) (A) (A) (A) (A) (A) (A) (A)
                 (A) (A) (A) (A) (A) (A) (A) (A) (A) (A) (A) (A)
                 (A) (A) (A) (A) (A) (A) (A) (A) (A) (A) (A) (A)
                 (A) (A) (A) (A) (A) (A) (A) (A) (A) (A) (A) (A)
                 (A) (A) (A)
 The electronic state is 2-A.
 Alpha  occ. eigenvalues --  -20.64353 -20.62569 -11.25060 -11.24475 -11.22574
 Alpha  occ. eigenvalues --  -11.22545 -11.22424  -1.50919  -1.18083  -1.11421
 Alpha  occ. eigenvalues --   -1.01479  -0.95125  -0.88258  -0.74136  -0.71927
 Alpha  occ. eigenvalues --   -0.71155  -0.64759  -0.62305  -0.61380  -0.61029
 Alpha  occ. eigenvalues --   -0.55854  -0.54951  -0.53498  -0.51776  -0.51244
 Alpha  occ. eigenvalues --   -0.48656  -0.48255  -0.44005  -0.33619
 Alpha virt. eigenvalues --    0.18924   0.21999   0.24187   0.26268   0.26787
 Alpha virt. eigenvalues --    0.29367   0.31398   0.31623   0.33138   0.34277
 Alpha virt. eigenvalues --    0.35803   0.38041   0.38951   0.42581   0.45786
 Alpha virt. eigenvalues --    0.49976   0.59567   0.67628   0.70639   0.73883
 Alpha virt. eigenvalues --    0.75518   0.77400   0.79596   0.83100   0.85022
 Alpha virt. eigenvalues --    0.92911   0.94271   0.95646   0.97918   0.99129
 Alpha virt. eigenvalues --    1.02926   1.05039   1.07580   1.07825   1.11794
 Alpha virt. eigenvalues --    1.13240   1.14164   1.16841   1.17331   1.18661
 Alpha virt. eigenvalues --    1.20031   1.21480   1.21503   1.23866   1.25115
 Alpha virt. eigenvalues --    1.27777   1.30126   1.31401   1.35235   1.41249
 Alpha virt. eigenvalues --    1.44966   1.52086   1.57562   1.60379   1.66672
 Alpha virt. eigenvalues --    1.68705   1.74639   1.77775   1.80056   1.80651
 Alpha virt. eigenvalues --    1.90066   1.93575   2.04184   2.10883   2.13423
 Alpha virt. eigenvalues --    2.14390   2.17158   2.18739   2.20263   2.32472
 Alpha virt. eigenvalues --    2.34223   2.34979   2.42536   2.46412   2.49114
 Alpha virt. eigenvalues --    2.54712   2.56683   2.62622   2.68772   2.74911
 Alpha virt. eigenvalues --    2.75931   2.76455   2.77971   2.83123   2.85637
 Alpha virt. eigenvalues --    2.86033   2.89251   3.01435   3.23666   3.29733
 Alpha virt. eigenvalues --    3.39939   3.97326   4.20188   4.52840   4.67447
 Alpha virt. eigenvalues --    4.71059   4.75097   4.96084
  Beta  occ. eigenvalues --  -20.62449 -20.61531 -11.23834 -11.23589 -11.22896
  Beta  occ. eigenvalues --  -11.22754 -11.22611  -1.47207  -1.12510  -1.09870
  Beta  occ. eigenvalues --   -0.99834  -0.95170  -0.86261  -0.71966  -0.71042
  Beta  occ. eigenvalues --   -0.64557  -0.63165  -0.61215  -0.59402  -0.58708
  Beta  occ. eigenvalues --   -0.55250  -0.54409  -0.53416  -0.51407  -0.48436
  Beta  occ. eigenvalues --   -0.45932  -0.45744  -0.35321
  Beta virt. eigenvalues --    0.07193   0.20515   0.21901   0.24397   0.26571
  Beta virt. eigenvalues --    0.26768   0.29541   0.31835   0.32886   0.33594
  Beta virt. eigenvalues --    0.35828   0.36332   0.38849   0.39925   0.43269
  Beta virt. eigenvalues --    0.49463   0.50333   0.59819   0.67819   0.71184
  Beta virt. eigenvalues --    0.73744   0.76462   0.78798   0.79747   0.84665
  Beta virt. eigenvalues --    0.86514   0.91633   0.95787   0.98001   0.99551
  Beta virt. eigenvalues --    0.99913   1.04074   1.06161   1.07950   1.08658
  Beta virt. eigenvalues --    1.12099   1.13604   1.13888   1.16863   1.17555
  Beta virt. eigenvalues --    1.19629   1.21043   1.21801   1.22461   1.24017
  Beta virt. eigenvalues --    1.25364   1.28314   1.32104   1.32427   1.35954
  Beta virt. eigenvalues --    1.41672   1.45596   1.54082   1.58152   1.61653
  Beta virt. eigenvalues --    1.69135   1.70163   1.76884   1.77983   1.80456
  Beta virt. eigenvalues --    1.81212   1.92143   1.95697   2.06295   2.11641
  Beta virt. eigenvalues --    2.14687   2.14904   2.19169   2.19663   2.21838
  Beta virt. eigenvalues --    2.33616   2.35439   2.36806   2.42734   2.47000
  Beta virt. eigenvalues --    2.50209   2.55432   2.56744   2.62524   2.68729
  Beta virt. eigenvalues --    2.75864   2.76361   2.77530   2.80440   2.83833
  Beta virt. eigenvalues --    2.86351   2.86824   2.91120   3.02267   3.23948
  Beta virt. eigenvalues --    3.30712   3.40129   3.97784   4.22036   4.53376
  Beta virt. eigenvalues --    4.67454   4.70885   4.76175   4.96655
          Condensed to atoms (all electrons):
              1          2          3          4          5          6
     1  O    8.315707   0.057673  -0.003297   0.000330  -0.057188  -0.000001
     2  O    0.057673   8.147057   0.005619  -0.000436  -0.002151  -0.000004
     3  C   -0.003297   0.005619   5.014939   0.605080   0.359295  -0.043381
     4  C    0.000330  -0.000436   0.605080   4.978832  -0.049685   0.345963
     5  C   -0.057188  -0.002151   0.359295  -0.049685   5.309852   0.003338
     6  C   -0.000001  -0.000004  -0.043381   0.345963   0.003338   5.101981
     7  C    0.000002  -0.000009  -0.043775   0.344355  -0.007421  -0.066482
     8  H   -0.027697   0.255726   0.001573   0.000654  -0.000521  -0.000002
     9  H    0.000010   0.000265   0.395624  -0.039352  -0.038627  -0.005174
    10  H    0.034681  -0.024526  -0.036750  -0.003198   0.231073  -0.000044
    11  H   -0.000294   0.000326  -0.032883   0.002199   0.385574  -0.000075
    12  H   -0.000018   0.000269  -0.037058   0.000171   0.384912   0.000032
    13  H    0.000000  -0.000002  -0.000848  -0.040689   0.000145   0.395259
    14  H    0.000000   0.000000  -0.000530  -0.042373  -0.000097   0.389897
    15  H    0.000000   0.000001   0.000441  -0.042275  -0.000083   0.388378
    16  H    0.000040  -0.000004  -0.002869  -0.035538  -0.000713   0.003624
    17  H   -0.000004   0.000003   0.000737  -0.041742   0.000192  -0.002192
    18  H    0.000000   0.000000   0.000024  -0.041419   0.000196  -0.001566
              7          8          9         10         11         12
     1  O    0.000002  -0.027697   0.000010   0.034681  -0.000294  -0.000018
     2  O   -0.000009   0.255726   0.000265  -0.024526   0.000326   0.000269
     3  C   -0.043775   0.001573   0.395624  -0.036750  -0.032883  -0.037058
     4  C    0.344355   0.000654  -0.039352  -0.003198   0.002199   0.000171
     5  C   -0.007421  -0.000521  -0.038627   0.231073   0.385574   0.384912
     6  C   -0.066482  -0.000002  -0.005174  -0.000044  -0.000075   0.000032
     7  C    5.108037  -0.000005   0.003450   0.000242   0.000126  -0.000445
     8  H   -0.000005   0.316207   0.000026  -0.001528   0.000005   0.000026
     9  H    0.003450   0.000026   0.490383   0.000073  -0.002870   0.002687
    10  H    0.000242  -0.001528   0.000073   0.505477  -0.022131  -0.020375
    11  H    0.000126   0.000005  -0.002870  -0.022131   0.486285  -0.022487
    12  H   -0.000445   0.000026   0.002687  -0.020375  -0.022487   0.494011
    13  H    0.003651   0.000000   0.003016  -0.000002  -0.000008   0.000005
    14  H   -0.000818   0.000001   0.000118  -0.000004   0.000005   0.000006
    15  H   -0.001499  -0.000019   0.000138   0.000018  -0.000001  -0.000004
    16  H    0.394984   0.000000   0.000037  -0.000076   0.000052   0.000688
    17  H    0.390966  -0.000020  -0.000101   0.000095  -0.000008  -0.000095
    18  H    0.390008   0.000001  -0.000108  -0.000033   0.000009   0.000056
             13         14         15         16         17         18
     1  O    0.000000   0.000000   0.000000   0.000040  -0.000004   0.000000
     2  O   -0.000002   0.000000   0.000001  -0.000004   0.000003   0.000000
     3  C   -0.000848  -0.000530   0.000441  -0.002869   0.000737   0.000024
     4  C   -0.040689  -0.042373  -0.042275  -0.035538  -0.041742  -0.041419
     5  C    0.000145  -0.000097  -0.000083  -0.000713   0.000192   0.000196
     6  C    0.395259   0.389897   0.388378   0.003624  -0.002192  -0.001566
     7  C    0.003651  -0.000818  -0.001499   0.394984   0.390966   0.390008
     8  H    0.000000   0.000001  -0.000019   0.000000  -0.000020   0.000001
     9  H    0.003016   0.000118   0.000138   0.000037  -0.000101  -0.000108
    10  H   -0.000002  -0.000004   0.000018  -0.000076   0.000095  -0.000033
    11  H   -0.000008   0.000005  -0.000001   0.000052  -0.000008   0.000009
    12  H    0.000005   0.000006  -0.000004   0.000688  -0.000095   0.000056
    13  H    0.511817  -0.024307  -0.024856  -0.000092  -0.000036  -0.000055
    14  H   -0.024307   0.539538  -0.034696  -0.000040  -0.000400   0.002586
    15  H   -0.024856  -0.034696   0.545571  -0.000065   0.002694  -0.000378
    16  H   -0.000092  -0.000040  -0.000065   0.511929  -0.025955  -0.024776
    17  H   -0.000036  -0.000400   0.002694  -0.025955   0.538454  -0.033128
    18  H   -0.000055   0.002586  -0.000378  -0.024776  -0.033128   0.533844
 Mulliken atomic charges:
              1
     1  O   -0.319945
     2  O   -0.439809
     3  C   -0.181940
     4  C    0.059124
     5  C   -0.518090
     6  C   -0.509550
     7  C   -0.515368
     8  H    0.455573
     9  H    0.190404
    10  H    0.337007
    11  H    0.206174
    12  H    0.197620
    13  H    0.177002
    14  H    0.171115
    15  H    0.166633
    16  H    0.178774
    17  H    0.170538
    18  H    0.174738
 Sum of Mulliken atomic charges =   0.00000
 Mulliken charges with hydrogens summed into heavy atoms:
              1
     1  O    0.017061
     2  O    0.015764
     3  C    0.008463
     4  C    0.059124
     5  C   -0.114296
     6  C    0.005200
     7  C    0.008682
 Sum of Mulliken charges with hydrogens summed into heavy atoms =   0.00000
          Atomic-Atomic Spin Densities.
              1          2          3          4          5          6
     1  O    0.777624  -0.052928   0.006959   0.000623  -0.068378   0.000002
     2  O   -0.052928   0.028235  -0.002921  -0.000449   0.008014  -0.000003
     3  C    0.006959  -0.002921  -0.724455   0.029529  -0.038322  -0.000389
     4  C    0.000623  -0.000449   0.029529   0.846244  -0.012976  -0.024783
     5  C   -0.068378   0.008014  -0.038322  -0.012976   0.777555   0.000022
     6  C    0.000002  -0.000003  -0.000389  -0.024783   0.000022  -0.093019
     7  C   -0.000021   0.000009   0.000083  -0.027936   0.000324   0.002274
     8  H   -0.000027  -0.000554  -0.000677   0.000307  -0.000247  -0.000007
     9  H   -0.000060   0.000057   0.007560  -0.002123  -0.001577   0.000214
    10  H   -0.079419   0.019622   0.019006  -0.000176   0.071025   0.000019
    11  H    0.002927  -0.000407   0.004951  -0.000141  -0.023665   0.000008
    12  H    0.002030  -0.000155   0.003629  -0.000541  -0.020404   0.000007
    13  H    0.000000   0.000000   0.000953  -0.002225  -0.000003   0.003565
    14  H    0.000000   0.000000  -0.000173  -0.012927   0.000022   0.007962
    15  H   -0.000001   0.000004   0.000249  -0.013292   0.000022   0.006891
    16  H    0.000000   0.000001   0.000834  -0.002160  -0.000412  -0.000079
    17  H   -0.000010   0.000004   0.000081  -0.011862   0.000128   0.000381
    18  H    0.000001   0.000000  -0.000042  -0.012682   0.000118   0.000616
              7          8          9         10         11         12
     1  O   -0.000021  -0.000027  -0.000060  -0.079419   0.002927   0.002030
     2  O    0.000009  -0.000554   0.000057   0.019622  -0.000407  -0.000155
     3  C    0.000083  -0.000677   0.007560   0.019006   0.004951   0.003629
     4  C   -0.027936   0.000307  -0.002123  -0.000176  -0.000141  -0.000541
     5  C    0.000324  -0.000247  -0.001577   0.071025  -0.023665  -0.020404
     6  C    0.002274  -0.000007   0.000214   0.000019   0.000008   0.000007
     7  C   -0.087587  -0.000014   0.000039  -0.000065  -0.000019   0.000332
     8  H   -0.000014  -0.002067  -0.000010   0.000993  -0.000004  -0.000008
     9  H    0.000039  -0.000010   0.041225  -0.000156  -0.000158  -0.000036
    10  H   -0.000065   0.000993  -0.000156  -0.262539   0.009043   0.008463
    11  H   -0.000019  -0.000004  -0.000158   0.009043  -0.038543   0.002732
    12  H    0.000332  -0.000008  -0.000036   0.008463   0.002732  -0.037543
    13  H   -0.000062   0.000000  -0.000071   0.000000   0.000001   0.000000
    14  H    0.000468   0.000000  -0.000032   0.000001   0.000001   0.000002
    15  H    0.000596  -0.000008   0.000041  -0.000003  -0.000001  -0.000002
    16  H    0.003497   0.000000   0.000004   0.000023   0.000009   0.000079
    17  H    0.007727  -0.000011   0.000003  -0.000011  -0.000002  -0.000037
    18  H    0.007289   0.000000  -0.000010   0.000003   0.000004   0.000037
             13         14         15         16         17         18
     1  O    0.000000   0.000000  -0.000001   0.000000  -0.000010   0.000001
     2  O    0.000000   0.000000   0.000004   0.000001   0.000004   0.000000
     3  C    0.000953  -0.000173   0.000249   0.000834   0.000081  -0.000042
     4  C   -0.002225  -0.012927  -0.013292  -0.002160  -0.011862  -0.012682
     5  C   -0.000003   0.000022   0.000022  -0.000412   0.000128   0.000118
     6  C    0.003565   0.007962   0.006891  -0.000079   0.000381   0.000616
     7  C   -0.000062   0.000468   0.000596   0.003497   0.007727   0.007289
     8  H    0.000000   0.000000  -0.000008   0.000000  -0.000011   0.000000
     9  H   -0.000071  -0.000032   0.000041   0.000004   0.000003  -0.000010
    10  H    0.000000   0.000001  -0.000003   0.000023  -0.000011   0.000003
    11  H    0.000001   0.000001  -0.000001   0.000009  -0.000002   0.000004
    12  H    0.000000   0.000002  -0.000002   0.000079  -0.000037   0.000037
    13  H    0.003353  -0.000643  -0.000779   0.000000  -0.000003  -0.000001
    14  H   -0.000643   0.037443  -0.008202  -0.000001  -0.000649   0.001625
    15  H   -0.000779  -0.008202   0.039994   0.000000   0.001659  -0.000635
    16  H    0.000000  -0.000001   0.000000   0.003579  -0.000585  -0.000800
    17  H   -0.000003  -0.000649   0.001659  -0.000585   0.032913  -0.007156
    18  H   -0.000001   0.001625  -0.000635  -0.000800  -0.007156   0.036834
 Mulliken atomic spin densities:
              1
     1  O    0.589320
     2  O   -0.001472
     3  C   -0.693144
     4  C    0.752430
     5  C    0.691247
     6  C   -0.096318
     7  C   -0.093066
     8  H   -0.002335
     9  H    0.044911
    10  H   -0.214171
    11  H   -0.043263
    12  H   -0.041416
    13  H    0.004084
    14  H    0.024897
    15  H    0.026534
    16  H    0.003989
    17  H    0.022569
    18  H    0.025203
 Sum of Mulliken atomic spin densities =   1.00000
 APT atomic charges:
              1
     1  O   -0.342308
     2  O   -0.464556
     3  C   -0.514674
     4  C    0.245899
     5  C   -1.140442
     6  C   -1.443803
     7  C   -1.336427
     8  H    0.471632
     9  H    0.437601
    10  H    0.412407
    11  H    0.562208
    12  H    0.431470
    13  H    0.389596
    14  H    0.579263
    15  H    0.409737
    16  H    0.308661
    17  H    0.415913
    18  H    0.577824
 Sum of APT charges=   0.00000
 APT Atomic charges with hydrogens summed into heavy atoms:
              1
     1  O    0.070099
     2  O    0.007076
     3  C   -0.077073
     4  C    0.245899
     5  C   -0.146764
     6  C   -0.065207
     7  C   -0.034029
     8  H    0.000000
     9  H    0.000000
    10  H    0.000000
    11  H    0.000000
    12  H    0.000000
    13  H    0.000000
    14  H    0.000000
    15  H    0.000000
    16  H    0.000000
    17  H    0.000000
    18  H    0.000000
 Sum of APT charges=   0.00000
 Electronic spatial extent (au):  <R**2>=           1151.5067
 Charge=              0.0000 electrons
 Dipole moment (field-independent basis, Debye):
    X=              3.0862    Y=             -0.0561    Z=             -0.5898  Tot=              3.1425
 Quadrupole moment (field-independent basis, Debye-Ang):
   XX=            -53.4389   YY=            -42.4209   ZZ=            -42.0572
   XY=              1.4420   XZ=             -0.6711   YZ=             -2.0431
 Traceless Quadrupole moment (field-independent basis, Debye-Ang):
   XX=             -7.4666   YY=              3.5514   ZZ=              3.9152
   XY=              1.4420   XZ=             -0.6711   YZ=             -2.0431
 Octapole moment (field-independent basis, Debye-Ang**2):
  XXX=             15.1128  YYY=              4.1286  ZZZ=             -3.8878  XYY=             -7.3538
  XXY=             -1.9839  XXZ=             -1.5048  XZZ=            -11.1209  YZZ=              6.0909
  YYZ=             -4.5193  XYZ=              5.9324
 Hexadecapole moment (field-independent basis, Debye-Ang**3):
 XXXX=          -1043.7943 YYYY=           -278.5311 ZZZZ=           -201.9382 XXXY=             -2.6139
 XXXZ=              2.4017 YYYX=             -8.2749 YYYZ=             -5.1485 ZZZX=              6.0353
 ZZZY=             -6.4103 XXYY=           -214.6222 XXZZ=           -193.0949 YYZZ=            -77.0795
 XXYZ=             -8.2211 YYXZ=              7.0346 ZZXY=             -4.0019
 N-N= 3.026011348929D+02 E-N=-2.113309753098D+03  KE= 5.157687128314D+02
  Exact polarizability:   0.000   0.000   0.000   0.000   0.000   0.000
 Approx polarizability:  61.780   1.504  51.914  -2.374  -1.109  50.241
                          Isotropic Fermi Contact Couplings
        Atom                 a.u.       MegaHertz       Gauss      10(-4) cm-1
     1  O(17)              0.11862     -71.90753     -25.65839     -23.98577
     2  O(17)              0.02282     -13.83237      -4.93573      -4.61398
     3  C(13)             -0.12466    -140.13662     -50.00423     -46.74455
     4  C(13)              0.13405     150.70222      53.77430      50.26885
     5  C(13)              0.16795     188.81179      67.37274      62.98084
     6  C(13)             -0.03199     -35.96579     -12.83349     -11.99690
     7  C(13)             -0.03071     -34.52925     -12.32089     -11.51772
     8  H(1)              -0.00119      -5.32734      -1.90093      -1.77701
     9  H(1)               0.01391      62.19300      22.19201      20.74535
    10  H(1)              -0.08629    -385.70690    -137.62981    -128.65797
    11  H(1)              -0.01499     -66.98546     -23.90208     -22.34394
    12  H(1)              -0.01363     -60.90250     -21.73152     -20.31489
    13  H(1)               0.00139       6.20449       2.21392       2.06960
    14  H(1)               0.01112      49.72373      17.74266      16.58605
    15  H(1)               0.01174      52.46801      18.72189      17.50145
    16  H(1)               0.00135       6.02438       2.14965       2.00952
    17  H(1)               0.01014      45.30428      16.16569      15.11188
    18  H(1)               0.01125      50.29299      17.94579      16.77594
 --------------------------------------------------------
       Center         ----  Spin Dipole Couplings  ----
                      3XX-RR        3YY-RR        3ZZ-RR
 --------------------------------------------------------
     1   Atom        1.050230     -0.890182     -0.160048
     2   Atom        0.179394     -0.180709      0.001314
     3   Atom        0.028999     -0.001046     -0.027953
     4   Atom       -0.019541      0.000941      0.018599
     5   Atom        0.183950     -0.159192     -0.024758
     6   Atom       -0.003454     -0.000165      0.003619
     7   Atom        0.003976      0.001130     -0.005106
     8   Atom       -0.001157      0.008391     -0.007235
     9   Atom        0.024237     -0.012662     -0.011575
    10   Atom        0.087870     -0.065361     -0.022509
    11   Atom       -0.003830     -0.032911      0.036741
    12   Atom       -0.016876      0.021931     -0.005054
    13   Atom       -0.002311      0.003695     -0.001384
    14   Atom        0.003419     -0.000365     -0.003054
    15   Atom        0.001453      0.004388     -0.005841
    16   Atom       -0.001249      0.000694      0.000556
    17   Atom       -0.001018     -0.003858      0.004876
    18   Atom       -0.001623      0.000974      0.000649
 --------------------------------------------------------
                        XY            XZ            YZ
 --------------------------------------------------------
     1   Atom       -0.748186      1.558802     -0.485787
     2   Atom       -0.206762      0.136645     -0.174463
     3   Atom        0.238583     -0.249822      0.236492
     4   Atom       -0.287089      0.313609     -0.310038
     5   Atom       -0.267863      0.359182     -0.202138
     6   Atom       -0.005843      0.001784      0.002688
     7   Atom        0.003324      0.003320     -0.003749
     8   Atom        0.009221     -0.006339     -0.012876
     9   Atom        0.017286     -0.008448     -0.018904
    10   Atom       -0.121252      0.151920     -0.083535
    11   Atom       -0.008940     -0.021254     -0.017354
    12   Atom       -0.024076      0.003154      0.026196
    13   Atom        0.002087      0.003790      0.003630
    14   Atom        0.006961      0.001649      0.001101
    15   Atom        0.005959     -0.000864     -0.000071
    16   Atom       -0.001640     -0.000959      0.004444
    17   Atom       -0.000522     -0.003209      0.004932
    18   Atom       -0.002603     -0.004407      0.004801
 --------------------------------------------------------


 ---------------------------------------------------------------------------------
              Anisotropic Spin Dipole Couplings in Principal Axis System
 ---------------------------------------------------------------------------------

       Atom             a.u.   MegaHertz   Gauss  10(-4) cm-1        Axes

              Baa    -1.2316    89.118    31.799    29.726 -0.5970 -0.2045  0.7758
     1 O(17)  Bbb    -1.1302    81.781    29.181    27.279  0.0941  0.9425  0.3208
              Bcc     2.3618  -170.898   -60.981   -57.006  0.7967 -0.2645  0.5434
 
              Baa    -0.3163    22.884     8.166     7.633  0.2678  0.8884  0.3728
     2 O(17)  Bbb    -0.0638     4.619     1.648     1.541 -0.5827 -0.1588  0.7970
              Bcc     0.3801   -27.503    -9.814    -9.174  0.7673 -0.4307  0.4752
 
              Baa    -0.4840   -64.947   -23.175   -21.664  0.5586 -0.5707  0.6019
     3 C(13)  Bbb     0.2223    29.833    10.645     9.951 -0.0318  0.7104  0.7031
              Bcc     0.2617    35.114    12.530    11.713  0.8289  0.4119 -0.3786
 
              Baa    -0.3150   -42.273   -15.084   -14.101 -0.6738  0.1054  0.7313
     4 C(13)  Bbb    -0.2929   -39.299   -14.023   -13.109  0.4810  0.8139  0.3259
              Bcc     0.6079    81.571    29.107    27.209  0.5609 -0.5714  0.5991
 
              Baa    -0.3072   -41.229   -14.712   -13.753  0.2871  0.9134  0.2885
     5 C(13)  Bbb    -0.2944   -39.505   -14.096   -13.177 -0.6185 -0.0532  0.7840
              Bcc     0.6016    80.734    28.808    26.930  0.7315 -0.4036  0.5497
 
              Baa    -0.0086    -1.160    -0.414    -0.387  0.7611  0.6016 -0.2426
     6 C(13)  Bbb     0.0033     0.441     0.157     0.147  0.5824 -0.4691  0.6639
              Bcc     0.0054     0.719     0.256     0.240 -0.2856  0.6466  0.7074
 
              Baa    -0.0085    -1.135    -0.405    -0.379 -0.3398  0.4422  0.8301
     7 C(13)  Bbb     0.0022     0.299     0.107     0.100 -0.3740  0.7463 -0.5506
              Bcc     0.0062     0.836     0.298     0.279  0.8630  0.4975  0.0882
 
              Baa    -0.0146    -7.785    -2.778    -2.597  0.1066  0.4531  0.8851
     8 H(1)   Bbb    -0.0066    -3.528    -1.259    -1.177  0.8884 -0.4432  0.1198
              Bcc     0.0212    11.312     4.036     3.773  0.4465  0.7735 -0.4498
 
              Baa    -0.0319   -17.030    -6.077    -5.681 -0.1350  0.7532  0.6438
     9 H(1)   Bbb    -0.0041    -2.213    -0.790    -0.738  0.5132 -0.5027  0.6957
              Bcc     0.0361    19.243     6.866     6.419  0.8476  0.4243 -0.3187
 
              Baa    -0.1322   -70.525   -25.165   -23.525  0.4991  0.8659 -0.0318
    10 H(1)   Bbb    -0.1286   -68.618   -24.485   -22.888 -0.4389  0.2843  0.8524
              Bcc     0.2608   139.143    49.650    46.413  0.7471 -0.4115  0.5220
 
              Baa    -0.0424   -22.600    -8.064    -7.539  0.3662  0.8835  0.2922
    11 H(1)   Bbb    -0.0055    -2.928    -1.045    -0.977  0.8615 -0.4406  0.2525
              Bcc     0.0478    25.528     9.109     8.515 -0.3518 -0.1593  0.9224
 
              Baa    -0.0366   -19.520    -6.965    -6.511  0.7031  0.5108 -0.4947
    12 H(1)   Bbb    -0.0075    -4.027    -1.437    -1.343  0.6390 -0.1487  0.7547
              Bcc     0.0441    23.547     8.402     7.854 -0.3119  0.8468  0.4310
 
              Baa    -0.0058    -3.075    -1.097    -1.026 -0.7021 -0.1148  0.7028
    13 H(1)   Bbb    -0.0013    -0.690    -0.246    -0.230 -0.6042  0.6183 -0.5026
              Bcc     0.0071     3.766     1.344     1.256  0.3769  0.7775  0.5035
 
              Baa    -0.0057    -3.038    -1.084    -1.013 -0.6123  0.7888  0.0535
    14 H(1)   Bbb    -0.0034    -1.798    -0.642    -0.600 -0.0951 -0.1407  0.9855
              Bcc     0.0091     4.836     1.726     1.613  0.7849  0.5983  0.1612
 
              Baa    -0.0060    -3.206    -1.144    -1.069  0.1983 -0.1070  0.9743
    15 H(1)   Bbb    -0.0031    -1.639    -0.585    -0.547  0.7608 -0.6099 -0.2218
              Bcc     0.0091     4.845     1.729     1.616  0.6179  0.7852 -0.0395
 
              Baa    -0.0039    -2.089    -0.745    -0.697  0.1999  0.7160 -0.6688
    16 H(1)   Bbb    -0.0017    -0.882    -0.315    -0.294  0.9443  0.0415  0.3266
              Bcc     0.0056     2.971     1.060     0.991 -0.2616  0.6968  0.6678
 
              Baa    -0.0062    -3.328    -1.187    -1.110 -0.1845  0.8775 -0.4427
    17 H(1)   Bbb    -0.0019    -1.034    -0.369    -0.345  0.9276  0.3043  0.2166
              Bcc     0.0082     4.362     1.556     1.455 -0.3248  0.3707  0.8701
 
              Baa    -0.0053    -2.820    -1.006    -0.941  0.6580 -0.2665  0.7043
    18 H(1)   Bbb    -0.0029    -1.527    -0.545    -0.509  0.5993  0.7516 -0.2755
              Bcc     0.0081     4.347     1.551     1.450 -0.4559  0.6034  0.6543
 

 ---------------------------------------------------------------------------------

 No NMR shielding tensors so no spin-rotation constants.
 Leave Link  601 at Thu Apr 26 14:04:22 2018, MaxMem=  671088640 cpu:      18.5
 (Enter /shared/apps/gaussian/G09_LINUX_LINDA/g09/l701.exe)
 Compute integral second derivatives.
 ... and contract with generalized density number  0.
 Leave Link  701 at Thu Apr 26 14:04:23 2018, MaxMem=  671088640 cpu:      10.6
 (Enter /shared/apps/gaussian/G09_LINUX_LINDA/g09/l702.exe)
 L702 exits ... SP integral derivatives will be done elsewhere.
 Leave Link  702 at Thu Apr 26 14:04:23 2018, MaxMem=  671088640 cpu:       0.3
 (Enter /shared/apps/gaussian/G09_LINUX_LINDA/g09/l703.exe)
 Compute integral second derivatives, UseDBF=F ICtDFT=           0.
 Integral derivatives from FoFDir, PRISM(SPDF).
 Calling FoFJK, ICntrl=    100147 FMM=F ISym2X=0 I1Cent= 0 IOpClX= 1 NMat=1 NMatS=1 NMatT=0.
 FoFCou: FMM=F IPFlag=           0 FMFlag=      100000 FMFlg1=         800
         NFxFlg=           0 DoJE=F BraDBF=F KetDBF=F FulRan=T
         Omega=  0.000000  0.000000  1.000000  0.000000  0.000000 ICntrl=  100147 IOpCl=  1
         NMat0=    1 NMatS0=    1 NMatT0=    0 NMatD0=    1 NMtDS0=    0 NMtDT0=    0
         I1Cent=           0 NGrid=           0.
 Symmetry not used in FoFCou.
 Leave Link  703 at Thu Apr 26 14:04:26 2018, MaxMem=  671088640 cpu:      32.1
 (Enter /shared/apps/gaussian/G09_LINUX_LINDA/g09/l716.exe)
 Dipole        = 1.21419877D+00-2.20749299D-02-2.32035080D-01
 Polarizability= 0.00000000D+00 0.00000000D+00 0.00000000D+00
                 0.00000000D+00 0.00000000D+00 0.00000000D+00
 ***** Axes restored to original set *****
 -------------------------------------------------------------------
 Center     Atomic                   Forces (Hartrees/Bohr)
 Number     Number              X              Y              Z
 -------------------------------------------------------------------
      1        8          -0.000001413   -0.000004571    0.000005704
      2        8           0.000000950   -0.000000098    0.000000155
      3        6           0.000000101   -0.000000970   -0.000000254
      4        6          -0.000000169    0.000000236   -0.000000298
      5        6          -0.000002025   -0.000004276    0.000004897
      6        6          -0.000000056   -0.000000009   -0.000000070
      7        6          -0.000000029   -0.000000087   -0.000000016
      8        1          -0.000000129   -0.000000171    0.000000283
      9        1           0.000000128    0.000000103   -0.000000029
     10        1           0.000002777    0.000009728   -0.000010486
     11        1          -0.000000283    0.000000116    0.000000122
     12        1           0.000000174   -0.000000287    0.000000231
     13        1           0.000000040    0.000000020   -0.000000009
     14        1          -0.000000013    0.000000019    0.000000002
     15        1          -0.000000063    0.000000044    0.000000007
     16        1          -0.000000013    0.000000048   -0.000000096
     17        1          -0.000000014    0.000000104   -0.000000119
     18        1           0.000000036    0.000000051   -0.000000025
 -------------------------------------------------------------------
 Cartesian Forces:  Max     0.000010486 RMS     0.000002422
 Leave Link  716 at Thu Apr 26 14:04:26 2018, MaxMem=  671088640 cpu:       1.5
 (Enter /shared/apps/gaussian/G09_LINUX_LINDA/g09/l103.exe)

 GradGradGradGradGradGradGradGradGradGradGradGradGradGradGradGradGradGrad
 Berny optimization.
 Red2BG is reusing G-inverse.
 Internal  Forces:  Max     0.000012508 RMS     0.000001571
 Search for a saddle point.
 Step number   1 out of a maximum of   81
 All quantities printed in internal units (Hartrees-Bohrs-Radians)
[...]
 964946,1.2646388,-2.4486112,-0.7519921,-2.9322206,-1.0953614,1.9515924
 ,-1.6054084,-0.8036941,0.7016602,-0.6860068,1.8043479,-1.296516,-1.236
 2439,-0.8980816,-0.3513929,2.0476864,-0.9268474,1.8134844,0.7080843,2.
 2380285,-0.2353786,1.652104,0.0345678,2.2930765,7.984028,3.800857,0.53
 35572,-0.5407532,-2.4352317,0.0937529,1.3716746,0.8826143,0.6453159,0.
 3735001,-0.2263515,-1.5374819,0.5552618,-1.9997129,0.101092,-0.4360433
 ,3.3158347,0.1448883,-4.3899389,7.3442625,-1.0510993,-0.1187609,4.0154
 266,-0.6328756,2.0687272,-0.2607856,1.8859074,-1.2846244,-0.4860015,1.
 7149268,0.266206,3.7416837,-1.2836492,0.8739368,4.3289167,-0.7128836,4
 .8158571,-0.6278428,-1.771989,-1.2699732,0.297761,0.1058398,0.2739507,
 -0.5842886,1.1541267,-9.8654948,-0.1087979,0.1959861,-0.0396445,0.8274
 466,-0.2602317,-0.5153077,0.8889083,-2.1520829,0.1501273,-3.8328863,1.
 5385545,-0.9358736,2.0722403,-0.5386863,-0.311507,1.3099968,-2.0751482
 ,1.8274746,-0.4887063,0.4846584,1.2041999,0.2951276,-0.2025138,-0.1617
 452,-1.5832219,1.5405074,0.9911115,-0.8529839,-2.1993605,-1.807924,1.2
 548889,0.5715241,0.6446351,-0.0488591,-1.6491011,-7.9382005,0.4681074,
 2.3085291,-1.5587603,-0.1819318,0.240465,0.1397131,-0.0679362,-2.12031
 36,1.1062318,3.6225162,-0.0366926,0.0858793,3.4694009,-0.5545576,3.699
 5922,0.485776,0.8430381,-0.812899,0.0195741,2.3009493,0.0590913,0.8926
 484,-0.1109428,0.080511,3.6177912,-0.3791729,9.2192038\HyperPolar=-304
 .1941714,128.9452875,-38.9204788,13.8976301,-174.8027066,63.2289302,-4
 4.307729,-52.2518669,73.2181257,10.2453599\PG=C01 [X(C5H11O2)]\NImag=1
 \\0.15355615,-0.15946141,0.14514133,-0.16133570,0.07076946,0.08646463,
 -0.13511716,0.06449504,0.09824885,0.11210770,0.11920487,-0.14615481,-0
 .11505879,-0.09603012,0.62978197,0.10791018,-0.06895499,-0.15063902,-0
 .12045471,-0.11666636,0.37364348,0.02265460,0.02699897,0.03172041,0.00
 911331,-0.00566347,-0.00227778,0.46394833,-0.02700781,-0.03039741,-0.0
 3777221,-0.01225747,0.00738102,0.00413631,-0.16774404,0.46830289,0.010
 54665,0.01587365,0.01867747,0.00694775,-0.00348404,-0.00148737,-0.1896
 2353,-0.18509088,0.59961477,-0.00238688,-0.00254400,-0.00249892,-0.000
 75762,0.00019189,-0.00038642,-0.11064104,0.07098186,-0.01629651,0.4493
 6605,0.01441506,0.01738297,0.02029241,0.00594816,-0.00380465,-0.001868
 57,0.04678670,-0.22908676,0.15532240,-0.17713207,0.53334882,-0.0109841
 8,-0.01533282,-0.01815770,-0.00648918,0.00440481,0.00235442,0.01192931
 ,0.12806451,-0.21795419,-0.10419481,-0.20130767,0.55072437,-0.12285137
 ,-0.11774148,-0.15020631,-0.03204037,0.03294054,0.02899117,-0.14001725
 ,0.02328781,0.07856683,-0.01341456,0.06144516,-0.04722489,0.24898924,-
 0.03461837,-0.02605129,-0.03716104,-0.00555642,0.00769345,0.00793852,0
 .11976501,-0.17418356,-0.00494323,0.02626044,-0.02653469,0.00522584,-0
 .13220230,0.58066065,-0.06486859,-0.06131316,-0.07487424,-0.01883707,0
 .01576723,0.01352884,0.06048662,-0.02415943,-0.09605429,-0.02238803,0.
 02763053,-0.00214117,-0.24086355,-0.10087609,0.54736394,-0.00051916,-0
 .00132551,-0.00156111,-0.00060327,0.00068268,0.00060110,-0.00433590,0.
 01041803,0.00065212,-0.17941874,0.07579257,0.03056002,0.00416462,0.002
 58720,0.00304552,0.58174910,-0.00035581,-0.00087630,-0.00105067,-0.000
 56292,0.00032395,0.00021287,0.02663801,-0.01781540,-0.00272332,0.07289
 947,-0.14443242,-0.00934452,0.00175368,0.00262150,0.00453988,0.0296126
 8,0.59250504,0.00028928,0.00068275,0.00091637,0.00025107,-0.00047471,-
 0.00043738,-0.01750670,0.01413584,0.01052148,0.03361670,-0.01100958,-0
 .10615040,0.00503767,0.00581518,-0.00019461,-0.01493016,-0.02815771,0.
 64984070,0.00045254,0.00099506,0.00137225,0.00039609,-0.00046765,-0.00
 036657,0.01128492,-0.00103911,-0.00560566,-0.13374803,-0.00244654,0.06
 692935,0.00014071,-0.00247083,-0.00175429,-0.01423215,-0.00504960,0.02
 765725,0.63163569,0.00012699,0.00033604,0.00022342,0.00027405,-0.00019
 589,-0.00013936,-0.01474740,-0.00026275,0.02425672,-0.00327361,-0.1037
 3647,0.03137203,-0.00284441,-0.00056095,-0.00117764,0.01176347,0.00875
 550,-0.01953306,-0.04232737,0.62795818,-0.00002242,-0.00011826,-0.0002
 5589,0.00009177,0.00013152,0.00019284,0.01032403,0.00741206,-0.0164081
 9,0.06733716,0.03075510,-0.19651843,-0.00094740,-0.00152815,-0.0000422
 2,0.00775433,0.00042735,-0.00502938,0.01325988,0.01372134,0.56499805,-
 0.00658639,0.04047322,-0.00225293,-0.01580259,-0.00703075,0.02518844,-
 0.00059020,0.00161891,-0.00021235,0.00028626,-0.00025336,0.00054289,0.
 00349183,-0.00070718,0.00192322,-0.00009398,0.00008843,0.00005507,0.00
 009840,-0.00004751,-0.00021773,0.02451404,0.00542010,-0.02687547,-0.00
 316304,0.02073654,-0.45579640,0.21340481,0.00064292,-0.00064573,0.0006
 7281,-0.00006318,0.00084989,-0.00063046,-0.00310656,-0.00107042,-0.001
 28741,-0.00012857,0.00012337,0.00015024,0.00015987,0.00010767,-0.00010
 027,-0.02890939,0.48365182,0.01281199,-0.04996652,0.00980886,0.0119260
 2,0.26863313,-0.18495862,-0.00128430,0.00150062,-0.00069639,0.00004777
 ,-0.00056312,0.00095218,0.00389711,0.00001047,0.00215287,-0.00005395,0
 .00011225,-0.00000908,-0.00003573,-0.00007210,-0.00007288,-0.02253193,
 -0.21311269,0.17687650,0.00038382,0.00213950,0.00228598,0.00171541,-0.
 00107860,-0.00081899,-0.15336994,-0.00665974,0.14559330,0.00724957,0.0
 0080995,-0.00454098,-0.00880440,-0.00140416,0.02570360,-0.00215025,-0.
 00170380,-0.00379950,0.00412379,0.00551700,0.00247320,-0.00037823,-0.0
 0007788,-0.00011784,0.15533002,-0.00023146,-0.00006616,-0.00008346,0.0
 0022112,-0.00002350,0.00007451,-0.00522352,-0.06180810,0.03181965,-0.0
 1594346,-0.00012215,0.02495476,0.01376541,0.00378427,-0.02062925,-0.00
 390725,-0.00216660,-0.00089883,0.00638364,0.00070507,0.00469795,-0.000
 24388,-0.00009775,0.00004777,0.00015692,0.06153951,-0.00006873,-0.0000
 4347,0.00000140,-0.00045672,-0.00004926,-0.00012892,0.14613320,0.03564
 714,-0.26867501,0.01523327,0.00095458,-0.01580648,0.00078109,0.0014532
 3,0.00117451,-0.00093640,-0.00337226,-0.00151665,0.00100220,0.00577383
 ,0.00317291,0.00005614,-0.00001714,-0.00004038,-0.16161710,-0.04036553
 ,0.27987916,0.07328458,0.12494524,0.15845545,0.05402674,-0.03494897,-0
 .03096383,-0.07663304,0.06617896,-0.04326930,0.00622727,-0.03914509,0.
 03335664,0.17558268,0.03863066,0.10223349,0.00276755,0.00232455,-0.000
 60003,-0.00219350,-0.00056862,-0.00017158,-0.00395891,0.00441349,-0.00
 395037,-0.00266999,0.00074392,0.00047210,-0.18604362,0.07395905,0.0573
 3258,0.09103951,0.01978500,-0.03580828,-0.03462284,-0.02236229,0.04224
 126,-0.01223095,0.00483102,-0.02254809,0.01795951,0.11243062,-0.010449
 77,0.05334412,0.00057217,0.00032683,-0.00090988,-0.00089430,-0.0001186
 8,-0.00008485,-0.00498051,-0.00019620,-0.00633866,-0.00188131,-0.00001
 841,-0.00031524,-0.14142394,-0.00980778,0.09533909,0.09508323,0.109709
 90,0.02396631,-0.04832270,-0.04774861,-0.04566807,0.05212071,-0.025203
 38,0.00443692,-0.02850418,0.02420782,0.15174477,0.02611526,0.04217624,
 0.00156131,0.00127815,-0.00082092,-0.00152740,-0.00007232,0.00024688,-
 0.00220308,0.00344198,-0.00299019,-0.00210405,0.00007152,-0.00025946,-
 0.18760683,-0.08212445,-0.07099805,0.00742529,0.00993259,0.01150959,0.
 00366090,-0.00314454,-0.00288811,0.00138825,0.03487251,-0.01946715,-0.
 00198252,-0.00022490,0.00613530,-0.04106487,-0.03689877,0.04368787,-0.
 00057685,-0.00001452,-0.00154790,-0.00036989,0.00016558,0.00058355,-0.
 00052183,0.00028709,-0.00046211,0.00017801,-0.00154636,-0.00079468,-0.
 02361714,-0.02583273,-0.00747643,0.05673100,0.00387089,0.00606670,0.00
 614157,0.00207031,-0.00205903,-0.00199539,-0.00935731,-0.01091208,0.01
 035182,0.00394409,-0.00361911,-0.00026709,-0.02086835,-0.28714516,0.13
 514362,0.00026919,0.00007541,0.00113039,0.00009325,0.00017147,-0.00057
 635,-0.00006671,0.00022318,-0.00014809,-0.00019848,0.00080118,-0.00062
 897,-0.01388562,-0.01461080,-0.00379417,0.03340822,0.30290392,0.007047
 60,0.00819814,0.01061297,0.00313428,-0.00263887,-0.00231923,-0.0061991
 7,0.00294862,0.00073974,0.00290511,-0.00389045,0.00406169,0.04439702,0
 .12745546,-0.12024357,-0.00001587,0.00001265,0.00016319,0.00063512,0.0
 0015363,-0.00021479,-0.00039796,0.00021434,-0.00051335,-0.00148556,-0.
 00099698,0.00014182,-0.02011434,-0.01850135,-0.00871507,-0.03291933,-0
 .14188884,0.12722681,0.00930817,0.00992940,0.01304359,0.00260686,-0.00
 388885,-0.00388327,-0.01433547,0.00705372,0.02449764,0.00084460,-0.005
 63748,0.00283137,-0.07477735,0.02315987,0.11264252,-0.00036754,-0.0002
 3683,-0.00041899,-0.00027624,0.00013338,-0.00007932,-0.00023000,0.0004
 8431,-0.00031550,-0.00216979,0.00567545,0.00115426,-0.01527474,-0.0133
 2116,-0.02950069,-0.00130456,0.00062073,0.00398995,0.09449544,0.005539
 87,0.00598088,0.00800959,0.00161586,-0.00252436,-0.00244751,0.00102103
 ,0.00766822,-0.02481735,0.00006575,-0.00212117,0.00168542,0.03331831,-
 0.06574719,-0.02738643,0.00013417,0.00014794,0.00031651,0.00076940,-0.
 00104265,0.00023270,-0.00003864,0.00028454,-0.00029241,0.00387082,-0.0
 0163601,0.00056819,-0.01020704,-0.00782088,-0.01715784,-0.01124783,0.0
 0832406,0.02840435,-0.02416890,0.06013088,0.00299756,0.00439745,0.0064
 1713,0.00142905,-0.00180347,-0.00170096,-0.00251261,0.00319882,0.00149
 794,0.00047851,-0.00133776,0.00071616,0.12485437,-0.02880317,-0.313479
 20,-0.00006694,-0.00018098,0.00008207,0.00043491,0.00029499,-0.0009749
 5,-0.00003302,0.00025971,-0.00018196,-0.00028072,0.00045597,0.00148933
 ,-0.00613973,-0.00666452,-0.01821935,0.00386095,-0.00346417,-0.0112102
 0,-0.12315028,0.03070922,0.33564291,0.00003504,0.00016013,0.00012402,0
 .00019843,-0.00014711,-0.00011133,0.00124703,-0.00263105,0.00139684,-0
 .01253279,-0.00982015,0.02482673,-0.00003629,0.00002343,-0.00040482,-0
 .11955579,-0.03328316,0.11073707,-0.00390328,0.00495703,-0.00035724,-0
 .00013092,0.00001447,0.00006218,0.00029716,0.00096445,-0.00095700,-0.0
 0017577,-0.00004263,-0.00004186,0.00004298,0.00002184,-0.00000401,0.00
 021006,-0.00017516,-0.00004554,0.12541857,0.00012156,0.00020695,0.0002
 4322,0.00010836,-0.00011308,-0.00007153,-0.00026527,0.00103749,-0.0014
 7239,0.00984012,0.00679687,-0.02142867,0.00030295,0.00020525,0.0000556
 3,-0.03594547,-0.08014875,0.06724705,0.00359315,-0.00294609,0.00022367
 ,-0.00004434,0.00001128,0.00002110,0.00056719,-0.00043379,0.00038823,-
 0.00039357,-0.00020683,-0.00029440,-0.00008577,-0.00000029,-0.00001395
 ,-0.00007253,0.00003893,-0.00001414,0.03483644,0.08193668,-0.00005278,
 -0.00015566,-0.00014635,-0.00007054,0.00009636,0.00010366,-0.00167902,
 0.00159675,-0.00034402,0.00162340,0.00189697,-0.00563955,-0.00015790,-
 0.00034164,0.00041703,0.11394312,0.06405878,-0.26930520,0.00142014,-0.
 00157546,0.00110441,0.00000730,-0.00002935,-0.00004036,-0.00049401,-0.
 00005936,0.00113217,0.00019342,0.00009916,0.00011232,0.00006216,-0.000
 06888,0.00000698,-0.00013761,0.00011543,0.00005135,-0.12504503,-0.0734
 6071,0.28876782,0.00022890,0.00058181,0.00071970,0.00016974,-0.0003439
 1,-0.00034438,-0.00285369,-0.00017681,0.00298539,-0.01796446,0.0030764
 2,-0.02226175,0.00151180,0.00137222,0.00005046,-0.18340084,-0.00727250
 ,-0.13765579,0.00090138,-0.00033067,-0.00094682,0.00009878,0.00011837,
 0.00003337,-0.00028249,-0.00033796,-0.00040944,-0.00078779,-0.00055148
 ,-0.00064812,-0.00040123,0.00032862,0.00009172,-0.00015295,0.00008059,
 0.00005360,0.01448150,0.00149759,0.01298759,0.19624995,-0.00015266,-0.
 00029503,-0.00037361,-0.00008630,0.00021197,0.00018583,0.00265662,-0.0
 0111597,-0.00162861,0.01788984,-0.00133661,0.02034017,-0.00137676,-0.0
 0148883,-0.00051417,-0.00533133,-0.05422297,-0.00552578,-0.00098753,0.
 00027526,0.00044695,0.00001003,-0.00012093,-0.00001143,0.00072140,0.00
 060402,0.00041287,0.00030945,0.00034538,0.00032934,0.00037658,-0.00027
 544,0.00000492,0.00018899,-0.00007204,-0.00002366,0.00795972,0.0001017
 2,0.00755204,0.00333191,0.05736941,0.00000111,0.00000961,0.00000637,-0
 .00009756,0.00003905,-0.00000576,0.00017564,-0.00025942,-0.00049278,0.
 00589383,0.00248332,0.00843571,-0.00024113,-0.00027426,0.00030559,-0.1
 3572494,-0.00670764,-0.21345842,-0.00006795,0.00018494,0.00032160,0.00
 010863,-0.00000364,0.00000127,-0.00029539,-0.00033903,0.00020278,-0.00
 001896,-0.00004129,-0.00004837,0.00006546,-0.00004662,-0.00000260,-0.0
 0009346,0.00009451,-0.00001875,-0.02142644,-0.00214803,-0.02196903,0.1
 5336367,0.00810936,0.22821732,0.00027352,0.00069539,0.00087352,0.00038
 241,-0.00039253,-0.00028991,-0.00285437,0.00123138,0.00192878,0.010572
 68,0.03153080,0.00138408,-0.00040840,-0.00037675,-0.00104758,-0.084316
 20,-0.08220497,-0.00403998,0.00103388,-0.00026440,-0.00080674,-0.00009
 990,0.00010284,-0.00010538,0.00043666,0.00052652,0.00013394,-0.0013467
 4,-0.00040999,-0.00088108,-0.00002894,0.00003314,-0.00001751,0.0000492
 2,-0.00003235,0.00002284,-0.00556373,-0.01505000,-0.00269055,-0.008122
 11,-0.02512365,-0.00158107,0.09025520,-0.00046151,-0.00104181,-0.00130
 872,-0.00049990,0.00066279,0.00050211,0.00250758,-0.00098510,-0.002544
 25,-0.00372844,-0.02168084,0.00125860,-0.00033376,0.00021023,0.0005071
 1,-0.08526072,-0.30507478,-0.02352094,-0.00079092,0.00019698,0.0008345
 1,0.00010637,-0.00022837,0.00006098,-0.00046060,-0.00042450,-0.0005598
 5,0.00188450,0.00068473,0.00125248,0.00014660,-0.00005209,0.00007171,0
 .00009143,0.00001844,-0.00008493,-0.00280704,-0.00731564,-0.00028890,-
 0.00154596,-0.00011694,-0.00090965,0.09030128,0.33378925,-0.00000316,-
 0.00004783,-0.00008131,0.00005071,0.00001322,0.00005489,0.00007993,0.0
 0060508,-0.00108251,-0.00269818,-0.00530971,0.00054292,-0.00007670,-0.
 00004644,0.00030381,-0.00476832,-0.02319835,-0.06089548,-0.00040320,-0
 .00041594,0.00010357,-0.00012813,0.00000050,0.00000894,0.00009248,0.00
 016354,0.00048770,0.00006950,-0.00000300,0.00006801,0.00002940,-0.0000
 3657,-0.00003057,-0.00004510,-0.00003896,-0.00001435,0.00974934,0.0315
 2271,0.00548022,-0.00949634,-0.02860441,-0.00204690,0.00713971,0.02528
 281,0.05704489,0.00005173,0.00014268,0.00016770,0.00009740,-0.00013176
 ,-0.00009554,-0.00020518,0.00082696,-0.00098499,-0.01274815,0.01032441
 ,0.00025248,0.00012398,0.00137530,0.00031077,-0.00024574,-0.00199454,0
 .00362631,-0.24161970,0.13848799,0.03660854,-0.00005706,0.00000995,0.0
 0000593,0.00005410,-0.00002155,-0.00005873,-0.00008808,-0.00015304,-0.
 00010631,0.00024728,-0.00018736,-0.00062515,0.00102863,0.00005172,-0.0
 0135314,-0.00065713,0.00089188,0.00040705,0.00053552,-0.00027555,-0.00
 013512,0.00012940,0.00027197,-0.00004419,0.25743192,0.00017719,0.00030
 295,0.00062320,0.00011939,-0.00019815,-0.00015858,0.00053311,0.0000030
 9,-0.00067488,-0.00939459,0.00729485,-0.00050758,0.00065906,-0.0013637
 9,0.00123422,-0.00062156,-0.00007600,0.00150075,0.14068176,-0.16620133
 ,-0.02716970,0.00006809,0.00000354,-0.00013177,-0.00003113,0.00016777,
 -0.00023833,-0.00061770,-0.00025942,-0.00066575,-0.00024097,0.00005076
 ,0.00006402,0.00002423,-0.00214421,0.00275542,-0.00020270,0.00054614,0
 .00032625,0.00012948,-0.00016504,0.00004274,-0.00013715,0.00047909,0.0
 0022399,-0.15607112,0.17831372,-0.00010549,-0.00023734,0.00000803,-0.0
 0005535,0.00011048,0.00012618,-0.00061907,-0.00085389,0.00177995,0.024
 91483,-0.02336467,-0.00174449,-0.00029891,0.00035805,-0.00092087,0.002
 10464,0.00335297,-0.00551594,0.03369488,-0.02457219,-0.06679427,0.0000
 4128,-0.00006016,-0.00012902,-0.00009743,-0.00029970,0.00027910,0.0000
 7899,0.00033743,-0.00005996,-0.00012091,0.00001652,0.00031359,-0.00021
 689,0.00193317,-0.00034527,0.00176507,-0.00104111,-0.00031598,0.000271
 32,0.00007484,0.00032253,-0.00043385,0.00016732,0.00009314,-0.03948576
 ,0.02536047,0.06722758,-0.00012345,-0.00027481,-0.00028406,-0.00006602
 ,0.00013682,0.00013212,-0.00225243,0.00111860,0.00104782,-0.00415373,-
 0.01737301,0.00036561,-0.00047404,0.00042177,-0.00028051,0.00047335,-0
 .00059624,-0.00047570,-0.08936881,-0.08614501,-0.00209518,-0.00001273,
 -0.00007543,-0.00005947,0.00074743,0.00013725,0.00076931,0.00047567,0.
 00021732,0.00035601,0.00007896,-0.00008327,-0.00027598,0.00026552,-0.0
 0039483,-0.00014331,0.00032412,0.00027279,-0.00010243,-0.00008318,-0.0
 0010642,0.00001070,-0.00026427,0.00061156,0.00046193,0.01293720,0.0290
 6752,0.00111800,0.08951650,-0.00036542,-0.00073014,-0.00105995,-0.0002
 9070,0.00048896,0.00037504,-0.00146440,0.00063850,0.00007834,-0.001015
 51,-0.00677087,0.00336531,-0.00112359,-0.00046479,-0.00062519,0.000638
 90,0.00010288,-0.00035545,-0.08578007,-0.30655277,-0.01123255,-0.00003
 948,-0.00015314,0.00019292,0.00020128,-0.00009800,0.00050440,0.0012534
 5,0.00059652,0.00093463,0.00005267,0.00004037,0.00029911,-0.00010274,0
 .00037489,0.00001525,0.00012156,0.00040640,0.00019976,-0.00000604,0.00
 000072,-0.00004803,-0.00028763,0.00082932,0.00003960,-0.00738366,-0.01
 984595,-0.00124539,0.09658238,0.33311688,0.00017822,0.00043096,0.00063
 716,0.00020216,-0.00030850,-0.00020536,0.00325698,-0.00083648,-0.00262
 828,0.01058024,0.03524701,-0.00101251,0.00130032,0.00010379,0.00054270
 ,-0.00104418,0.00029187,0.00099314,-0.00061796,-0.00890697,-0.05460044
 ,-0.00005261,0.00012004,-0.00018937,-0.00149718,-0.00044346,-0.0017491
 6,-0.00075480,-0.00033654,-0.00058332,-0.00011629,0.00004806,-0.000040
 20,-0.00017475,0.00004196,0.00019940,-0.00052576,-0.00005462,0.0000482
 0,-0.00000193,-0.00023314,-0.00004024,0.00037935,-0.00070393,-0.000067
 90,-0.00224668,-0.00440996,-0.00088123,0.00059399,0.00991215,0.0597768
 0,-0.00006992,-0.00014180,-0.00038204,-0.00008796,0.00011146,0.0000578
 3,-0.00154794,-0.00007269,0.00129636,0.01520213,0.00190337,0.01658201,
 -0.00011595,0.00063888,0.00036039,0.00066177,-0.00004192,-0.00029565,-
 0.16435579,-0.01087648,-0.13278803,-0.00002656,-0.00002893,0.00013221,
 -0.00069088,-0.00111923,-0.00043672,0.00042485,0.00005819,0.00035950,0
 .00011517,-0.00001319,-0.00014593,0.00008015,-0.00020277,-0.00040652,0
 .00030081,-0.00017507,-0.00021427,-0.00012884,-0.00000433,0.00006298,-
 0.00012832,-0.00003243,-0.00000969,-0.01701611,-0.00414292,-0.02255535
 ,-0.00802008,-0.00099099,-0.00945914,0.17540349,-0.00018111,-0.0002619
 6,-0.00031087,-0.00009000,0.00013403,0.00009513,-0.00072224,-0.0000596
 0,0.00123453,0.00619038,0.00012043,0.01018784,-0.00030631,-0.00011492,
 -0.00025357,0.00004935,-0.00016919,-0.00059276,-0.01042222,-0.05688860
 ,-0.01807302,-0.00000327,-0.00007088,0.00005757,-0.00048834,-0.0007068
 3,-0.00011241,0.00050632,0.00031783,0.00030851,-0.00000544,0.00001695,
 0.00010350,0.00006697,0.00013972,0.00028997,0.00004991,-0.00012325,0.0
 0003846,0.00004833,0.00030132,-0.00018591,-0.00014192,0.00004922,-0.00
 015026,0.01383571,0.00309199,0.01996319,-0.02351698,-0.00197979,-0.029
 96224,0.01513086,0.05620353,0.00031937,0.00072480,0.00089422,0.0002131
 6,-0.00038908,-0.00037310,0.00326412,-0.00239415,-0.00180495,-0.018604
 87,0.00257340,-0.02687034,0.00044643,-0.00050176,-0.00001536,-0.001120
 28,0.00044868,0.00081651,-0.13602724,-0.01951584,-0.22922883,0.0001067
 6,0.00013970,0.00002097,0.00100021,0.00182995,0.00021520,-0.00126981,-
 0.00060617,-0.00087450,-0.00014139,0.00008317,0.00002277,-0.00014345,0
 .00002945,0.00004870,0.00025779,0.00029795,0.00053632,0.00120773,-0.00
 054152,0.00026966,0.00003143,-0.00001645,0.00003093,0.00375681,0.00182
 549,0.00655692,-0.00113883,-0.00134996,-0.00019939,0.14784206,0.017362
 34,0.24995425\\-0.00000004,-0.00000007,-0.00000001,-0.00000004,0.00000
 001,-0.00000003,0.,0.00000001,0.,0.,0.,0.00000001,-0.00000007,0.,-0.00
 000005,0.,0.,0.,0.,0.,0.00000002,0.,0.,0.,0.,0.,0.,0.00000010,0.000000
 07,0.00000004,0.00000001,0.,0.,0.,0.,0.,0.,0.,0.,0.,0.,0.,0.,0.,0.,0.,
 0.,0.,0.,0.,0.,0.,0.,0.\\\@


 IT WAS AN ACT OF DESPARATION. FOR SIX YEARS I HAD STRUGGLED WITH THE
 BLACKBODY THEORY. I KNEW THE PROBLEM WAS FUNDAMENTAL, AND I KNEW
 THE ANSWER. I HAD TO FIND A THEORETICAL EXPLANATION AT ANY COST,
 EXCEPT FOR THE INVIOLABLITY OF THE TWO LAWS OF THERMODYNAMICS.
   -- MAX PLANCK, 1931
 Job cpu time:  0 days  0 hours 11 minutes 57.3 seconds.
 File lengths (MBytes):  RWF=    136 Int=      0 D2E=      0 Chk=      3 Scr=      1
 Normal termination of Gaussian 09 at Thu Apr 26 14:06:21 2018.
