 Entering Gaussian System, Link 0=g09
 Initial command:
 /shared/apps/gaussian/G09_LINUX_LINDA/g09/l1.exe /home/harms.n/Code/AutoTST/ipython_notebooks/Gau-14643.inp -scrdir=/home/harms.n/Code/AutoTST/ipython_notebooks/
 Entering Link 1 = /shared/apps/gaussian/G09_LINUX_LINDA/g09/l1.exe PID=     14644.
  
 Copyright (c) 1988,1990,1992,1993,1995,1998,2003,2009,2010,
            Gaussian, Inc.  All Rights Reserved.
  
 This is part of the Gaussian(R) 09 program.  It is based on
 the Gaussian(R) 03 system (copyright 2003, Gaussian, Inc.),
 the Gaussian(R) 98 system (copyright 1998, Gaussian, Inc.),
 the Gaussian(R) 94 system (copyright 1995, Gaussian, Inc.),
 the Gaussian 92(TM) system (copyright 1992, Gaussian, Inc.),
 the Gaussian 90(TM) system (copyright 1990, Gaussian, Inc.),
 the Gaussian 88(TM) system (copyright 1988, Gaussian, Inc.),
 the Gaussian 86(TM) system (copyright 1986, Carnegie Mellon
 University), and the Gaussian 82(TM) system (copyright 1983,
 Carnegie Mellon University). Gaussian is a federally registered
 trademark of Gaussian, Inc.
  
 This software contains proprietary and confidential information,
 including trade secrets, belonging to Gaussian, Inc.
  
 This software is provided under written license and may be
 used, copied, transmitted, or stored only in accord with that
 written license.
  
 The following legend is applicable only to US Government
 contracts under FAR:
  
                    RESTRICTED RIGHTS LEGEND
  
 Use, reproduction and disclosure by the US Government is
 subject to restrictions as set forth in subparagraphs (a)
 and (c) of the Commercial Computer Software - Restricted
 Rights clause in FAR 52.227-19.
  
 Gaussian, Inc.
 340 Quinnipiac St., Bldg. 40, Wallingford CT 06492
  
  
 ---------------------------------------------------------------
 Warning -- This program may not be used in any manner that
 competes with the business of Gaussian, Inc. or will provide
 assistance to any competitor of Gaussian, Inc.  The licensee
 of this program is prohibited from giving any competitor of
 Gaussian, Inc. access to this program.  By using this program,
 the user acknowledges that Gaussian, Inc. is engaged in the
 business of creating and licensing software in the field of
 computational chemistry and represents and warrants to the
 licensee that it is not a competitor of Gaussian, Inc. and that
 it will not use this program in any manner prohibited above.
 ---------------------------------------------------------------
  

 Cite this work as:
 Gaussian 09, Revision B.01,
 M. J. Frisch, G. W. Trucks, H. B. Schlegel, G. E. Scuseria, 
 M. A. Robb, J. R. Cheeseman, G. Scalmani, V. Barone, B. Mennucci, 
 G. A. Petersson, H. Nakatsuji, M. Caricato, X. Li, H. P. Hratchian, 
 A. F. Izmaylov, J. Bloino, G. Zheng, J. L. Sonnenberg, M. Hada, 
 M. Ehara, K. Toyota, R. Fukuda, J. Hasegawa, M. Ishida, T. Nakajima, 
 Y. Honda, O. Kitao, H. Nakai, T. Vreven, J. A. Montgomery, Jr., 
 J. E. Peralta, F. Ogliaro, M. Bearpark, J. J. Heyd, E. Brothers, 
 K. N. Kudin, V. N. Staroverov, T. Keith, R. Kobayashi, J. Normand, 
 K. Raghavachari, A. Rendell, J. C. Burant, S. S. Iyengar, J. Tomasi, 
 M. Cossi, N. Rega, J. M. Millam, M. Klene, J. E. Knox, J. B. Cross, 
 V. Bakken, C. Adamo, J. Jaramillo, R. Gomperts, R. E. Stratmann, 
 O. Yazyev, A. J. Austin, R. Cammi, C. Pomelli, J. W. Ochterski, 
 R. L. Martin, K. Morokuma, V. G. Zakrzewski, G. A. Voth, 
 P. Salvador, J. J. Dannenberg, S. Dapprich, A. D. Daniels, 
 O. Farkas, J. B. Foresman, J. V. Ortiz, J. Cioslowski, 
 and D. J. Fox, Gaussian, Inc., Wallingford CT, 2010.
 
 ******************************************
 Gaussian 09:  EM64L-G09RevB.01 12-Aug-2010
                26-Apr-2018 
 ******************************************
 %nprocshared=20
 Will use up to   20 processors via shared memory.
 %mem=5GB
 --------------------------
 #p hf/6-31g* irc=(calcall)
 --------------------------
 1/10=4,18=10,38=1,44=3,71=1/1,23;
 2/12=2,17=6,18=5,29=1,40=1/2;
 3/5=1,6=6,7=1,11=9,16=1,25=1,30=1,71=2/1,2,3;
 4//1;
 5/5=2,38=5/2;
 8/6=4,10=90,11=11/1;
 11/6=1,8=1,9=11,15=111,16=1/1,2,10;
 10/6=1/2;
 6/7=2,8=2,9=2,10=2,18=1,28=1/1;
 7/10=1,25=1/1,2,3,16;
 1/10=4,18=10,44=3,71=1/23(3);
 2/29=1/2;
 7/8=1,9=1,25=1,44=-1/16;
 99/5=20/99;
 2/29=1/2;
 3/5=1,6=6,7=1,11=9,16=1,25=1,30=1,71=2/1,2,3;
 4/5=5,16=3/1;
 5/5=2,38=5/2;
 8/6=4,10=90,11=11/1;
 11/6=1,8=1,9=11,15=111,16=1/1,2,10;
 10/6=1/2;
 7/10=1,25=1/1,2,3,16;
 1/10=4,18=10,44=3,71=1/23(-8);
 2/29=1/2;
 6/7=2,8=2,9=2,10=2,18=1,19=2,28=1/1;
 7/8=1,9=1,25=1,44=-1/16;
 99/5=20/99;
 Leave Link    1 at Thu Apr 26 14:06:22 2018, MaxMem=  671088640 cpu:       3.8
 (Enter /shared/apps/gaussian/G09_LINUX_LINDA/g09/l101.exe)
 ------------------------------
 Gaussian input prepared by ASE
 ------------------------------
 Symbolic Z-matrix:
 Charge =  0 Multiplicity = 2
 O                    -2.52275   1.13856  -2.21144 
 O                    -1.85133   0.3473   -3.0992 
 C                     0.51013   1.1553   -1.02304 
 C                     0.81406   0.12082  -0.19297 
 C                    -0.57817   2.11151  -0.8812 
 C                     1.97469  -0.79271  -0.49805 
 C                     0.06798  -0.20421   1.07638 
 H                    -1.82159  -0.50024  -2.67102 
 H                     1.10775   1.26526  -1.9123 
 H                    -1.60782   1.63815  -1.54744 
 H                    -0.43091   3.04789  -1.39894 
 H                    -0.9972    2.2499    0.10325 
 H                     2.47699  -0.51649  -1.41747 
 H                     2.70674  -0.76979   0.30625 
 H                     1.64348  -1.82488  -0.59112 
 H                    -0.78355   0.43896   1.24988 
 H                    -0.29284  -1.22987   1.05037 
 H                     0.72878  -0.1266    1.93688 
 
 NAtoms=     18 NQM=     18 NQMF=      0 NMic=      0 NMicF=      0 NTot=     18.
                    Isotopes and Nuclear Properties:
 (Nuclear quadrupole moments (NQMom) in fm**2, nuclear magnetic moments (NMagM)
  in nuclear magnetons)

  Atom         1           2           3           4           5           6           7           8           9          10
 IAtWgt=          16          16          12          12          12          12          12           1           1           1
 AtmWgt=  15.9949146  15.9949146  12.0000000  12.0000000  12.0000000  12.0000000  12.0000000   1.0078250   1.0078250   1.0078250
 NucSpn=           0           0           0           0           0           0           0           1           1           1
 AtZEff=   0.0000000   0.0000000   0.0000000   0.0000000   0.0000000   0.0000000   0.0000000   0.0000000   0.0000000   0.0000000
 NQMom=    0.0000000   0.0000000   0.0000000   0.0000000   0.0000000   0.0000000   0.0000000   0.0000000   0.0000000   0.0000000
 NMagM=    0.0000000   0.0000000   0.0000000   0.0000000   0.0000000   0.0000000   0.0000000   2.7928460   2.7928460   2.7928460

  Atom        11          12          13          14          15          16          17          18
 IAtWgt=           1           1           1           1           1           1           1           1
 AtmWgt=   1.0078250   1.0078250   1.0078250   1.0078250   1.0078250   1.0078250   1.0078250   1.0078250
 NucSpn=           1           1           1           1           1           1           1           1
 AtZEff=   0.0000000   0.0000000   0.0000000   0.0000000   0.0000000   0.0000000   0.0000000   0.0000000
 NQMom=    0.0000000   0.0000000   0.0000000   0.0000000   0.0000000   0.0000000   0.0000000   0.0000000
 NMagM=    2.7928460   2.7928460   2.7928460   2.7928460   2.7928460   2.7928460   2.7928460   2.7928460
 Leave Link  101 at Thu Apr 26 14:06:22 2018, MaxMem=  671088640 cpu:       1.0
 (Enter /shared/apps/gaussian/G09_LINUX_LINDA/g09/l123.exe)
 IRC-IRC-IRC-IRC-IRC-IRC-IRC-IRC-IRC-IRC-IRC-IRC-IRC-IRC-IRC-IRC-IRC-IRC
 ------------------------------------------------------------------------
 INPUT DATA FOR L123
 ------------------------------------------------------------------------
 GENERAL PARAMETERS:
 Follow reaction path in both directions.
 Maximum points per path      =  10
 Step size                    =   0.100 bohr
 Integration scheme           = HPC                                 
    Redo corrector integration= Yes                                 
    Max correction cycles     =  20
 Initial Hessian              = CalcFC
 Hessian evaluation           = Full Hessian always
 ------------------------------------------------------------------------
 IRC-IRC-IRC-IRC-IRC-IRC-IRC-IRC-IRC-IRC-IRC-IRC-IRC-IRC-IRC-IRC-IRC-IRC
 Leave Link  123 at Thu Apr 26 14:06:22 2018, MaxMem=  671088640 cpu:       0.0
 (Enter /shared/apps/gaussian/G09_LINUX_LINDA/g09/l202.exe)
                          Input orientation:                          
 ---------------------------------------------------------------------
 Center     Atomic      Atomic             Coordinates (Angstroms)
 Number     Number       Type             X           Y           Z
 ---------------------------------------------------------------------
      1          8           0       -2.522751    1.138561   -2.211441
      2          8           0       -1.851326    0.347301   -3.099200
      3          6           0        0.510126    1.155297   -1.023042
      4          6           0        0.814056    0.120820   -0.192972
      5          6           0       -0.578166    2.111513   -0.881198
      6          6           0        1.974695   -0.792706   -0.498047
      7          6           0        0.067979   -0.204206    1.076383
      8          1           0       -1.821585   -0.500242   -2.671016
      9          1           0        1.107747    1.265256   -1.912304
     10          1           0       -1.607821    1.638151   -1.547441
     11          1           0       -0.430906    3.047894   -1.398938
     12          1           0       -0.997201    2.249902    0.103249
     13          1           0        2.476993   -0.516492   -1.417468
     14          1           0        2.706742   -0.769789    0.306248
     15          1           0        1.643480   -1.824882   -0.591123
     16          1           0       -0.783549    0.438960    1.249878
     17          1           0       -0.292845   -1.229868    1.050374
     18          1           0        0.728783   -0.126597    1.936880
 ---------------------------------------------------------------------
                    Distance matrix (angstroms):
                    1          2          3          4          5
     1  O    0.000000
     2  O    1.365657   0.000000
     3  C    3.257440   3.246498   0.000000
     4  C    4.030421   3.949901   1.360710   0.000000
     5  C    2.549038   3.106914   1.455625   2.524835   0.000000
     6  C    5.185800   4.764877   2.493050   1.508205   3.885664
     7  C    4.395986   4.628541   2.539946   1.507825   3.100351
     8  H    1.840793   0.950029   3.300531   3.670562   3.401589
     9  H    3.645004   3.317752   1.077047   2.086166   2.149798
    10  H    1.235954   2.033112   2.234690   3.162652   1.314588
    11  H    2.946444   3.493092   2.146803   3.401771   1.080070
    12  H    2.986665   3.821662   2.176861   2.810941   1.078832
    13  H    5.326071   4.723210   2.611325   2.161230   4.065463
    14  H    6.109677   5.798358   3.209064   2.150504   4.527974
    15  H    5.363292   4.818973   3.217532   2.152261   4.529355
    16  H    3.936368   4.479178   2.711623   2.176091   2.716817
    17  H    4.606666   4.704816   3.260801   2.143711   3.870039
    18  H    5.420485   5.678349   3.232986   2.145869   3.828683
                    6          7          8          9         10
     6  C    0.000000
     7  C    2.541796   0.000000
     8  H    4.383956   4.207267   0.000000
     9  H    2.643279   3.488938   3.503372   0.000000
    10  H    4.454741   3.617601   2.425045   2.765228   0.000000
    11  H    4.620469   4.117312   4.017642   2.410145   1.842433
    12  H    4.295484   2.846795   3.992424   3.076165   1.863296
    13  H    1.083481   3.481403   4.477658   2.300940   4.620075
    14  H    1.087801   2.806433   5.426095   3.408836   5.277291
    15  H    1.088005   2.808802   4.252917   3.403158   4.845421
    16  H    3.490008   1.081140   4.163296   3.776130   3.153169
    17  H    2.780369   1.087590   4.088783   4.118830   4.086972
    18  H    2.815114   1.087722   5.279838   4.110606   4.551324
                   11         12         13         14         15
    11  H    0.000000
    12  H    1.792777   0.000000
    13  H    4.600117   4.694203   0.000000
    14  H    5.227542   4.783193   1.757310   0.000000
    15  H    5.357200   4.905019   1.757690   1.746146   0.000000
    16  H    3.734584   2.154046   4.319579   3.812302   3.795357
    17  H    4.931271   3.674501   3.777717   3.124567   2.607279
    18  H    4.748679   3.462509   3.802618   2.642911   3.179880
                   16         17         18
    16  H    0.000000
    17  H    1.750880   0.000000
    18  H    1.754701   1.745515   0.000000
 Symmetry turned off by external request.
 Stoichiometry    C5H11O2(2)
 Framework group  C1[X(C5H11O2)]
 Deg. of freedom    48
 Full point group                 C1      NOp   1
 Rotational constants (GHZ):      3.6012798      1.1895772      1.1106304
 Leave Link  202 at Thu Apr 26 14:06:23 2018, MaxMem=  671088640 cpu:       0.7
 (Enter /shared/apps/gaussian/G09_LINUX_LINDA/g09/l301.exe)
 Standard basis: 6-31G(d) (6D, 7F)
 Ernie: Thresh=  0.10000D-02 Tol=  0.10000D-05 Strict=F.
 Integral buffers will be    131072 words long.
 Raffenetti 2 integral format.
 Two-electron integral symmetry is turned off.
   127 basis functions,   240 primitive gaussians,   127 cartesian basis functions
    29 alpha electrons       28 beta electrons
       nuclear repulsion energy       302.6100314842 Hartrees.
 IExCor=    0 DFT=F Ex=HF Corr=None ExCW=0 ScaHFX=  1.000000
 ScaDFX=  1.000000  1.000000  1.000000  1.000000 ScalE2=  1.000000  1.000000
 IRadAn=      0 IRanWt=     -1 IRanGd=            0 ICorTp=0
 NAtoms=   18 NActive=   18 NUniq=   18 SFac= 1.00D+00 NAtFMM=   50 NAOKFM=F Big=F
 Leave Link  301 at Thu Apr 26 14:06:23 2018, MaxMem=  671088640 cpu:       0.9
 (Enter /shared/apps/gaussian/G09_LINUX_LINDA/g09/l302.exe)
 NPDir=0 NMtPBC=     1 NCelOv=     1 NCel=       1 NClECP=     1 NCelD=      1
         NCelK=      1 NCelE2=     1 NClLst=     1 CellRange=     0.0.
 One-electron integrals computed using PRISM.
 NBasis=   127 RedAO= T  NBF=   127
 NBsUse=   127 1.00D-06 NBFU=   127
 Leave Link  302 at Thu Apr 26 14:06:23 2018, MaxMem=  671088640 cpu:       6.4
 (Enter /shared/apps/gaussian/G09_LINUX_LINDA/g09/l303.exe)
 DipDrv:  MaxL=1.
 Leave Link  303 at Thu Apr 26 14:06:24 2018, MaxMem=  671088640 cpu:       1.8
 (Enter /shared/apps/gaussian/G09_LINUX_LINDA/g09/l401.exe)
 Harris functional with IExCor=  205 diagonalized for initial guess.
 ExpMin= 1.61D-01 ExpMax= 5.48D+03 ExpMxC= 8.25D+02 IAcc=1 IRadAn=         1 AccDes= 0.00D+00
 HarFok:  IExCor=  205 AccDes= 0.00D+00 IRadAn=         1 IDoV= 1
 ScaDFX=  1.000000  1.000000  1.000000  1.000000
 FoFCou: FMM=F IPFlag=           0 FMFlag=      100000 FMFlg1=           0
         NFxFlg=           0 DoJE=T BraDBF=F KetDBF=T FulRan=T
         Omega=  0.000000  0.000000  1.000000  0.000000  0.000000 ICntrl=     500 IOpCl=  0
         NMat0=    1 NMatS0=    1 NMatT0=    0 NMatD0=    1 NMtDS0=    0 NMtDT0=    0
         I1Cent=           4 NGrid=           0.
 Symmetry not used in FoFCou.
 Harris En= -345.812643429835    
 Initial guess <Sx>= 0.0000 <Sy>= 0.0000 <Sz>= 0.5000 <S**2>= 0.7500 S= 0.5000
 Leave Link  401 at Thu Apr 26 14:06:26 2018, MaxMem=  671088640 cpu:      22.4
 (Enter /shared/apps/gaussian/G09_LINUX_LINDA/g09/l502.exe)
 UHF open shell SCF:
 Requested convergence on RMS density matrix=1.00D-08 within 128 cycles.
 Requested convergence on MAX density matrix=1.00D-06.
 Requested convergence on             energy=1.00D-06.
 No special actions if energy rises.
 Using DIIS extrapolation, IDIIS=  1040.
 Two-electron integral symmetry not used.
 Keep R1 and R2 ints in memory in canonical form, NReq=67190916.
 IEnd=       69871 IEndB=       69871 NGot=   671088640 MDV=   604979126
 LenX=   604979126 LenY=   604962556
 Symmetry not used in FoFDir.
 MinBra= 0 MaxBra= 2 Meth= 1.
 IRaf=       0 NMat=   1 IRICut=       1 DoRegI=T DoRafI=F ISym2E= 0 JSym2E=0.

 Cycle   1  Pass 1  IDiag  1:
 E= -344.875007063950    
 DIIS: error= 5.27D-02 at cycle   1 NSaved=   1.
 NSaved= 1 IEnMin= 1 EnMin= -344.875007063950     IErMin= 1 ErrMin= 5.27D-02
 ErrMax= 5.27D-02 EMaxC= 1.00D-01 BMatC= 1.99D+00 BMatP= 1.99D+00
 IDIUse=3 WtCom= 4.73D-01 WtEn= 5.27D-01
 Coeff-Com:  0.100D+01
 Coeff-En:   0.100D+01
 Coeff:      0.100D+01
 Gap=     0.577 Goal=   None    Shift=    0.000
 Gap=     0.532 Goal=   None    Shift=    0.000
 GapD=    0.532 DampG=2.000 DampE=0.500 DampFc=1.0000 IDamp=-1.
 RMSDP=5.65D-03 MaxDP=1.11D-01              OVMax= 2.01D-01

 Cycle   2  Pass 1  IDiag  1:
 E= -345.189781323371     Delta-E=       -0.314774259421 Rises=F Damp=F
 DIIS: error= 2.02D-02 at cycle   2 NSaved=   2.
 NSaved= 2 IEnMin= 2 EnMin= -345.189781323371     IErMin= 2 ErrMin= 2.02D-02
 ErrMax= 2.02D-02 EMaxC= 1.00D-01 BMatC= 2.14D-01 BMatP= 1.99D+00
 IDIUse=3 WtCom= 7.98D-01 WtEn= 2.02D-01
 Coeff-Com:  0.172D+00 0.828D+00
 Coeff-En:   0.000D+00 0.100D+01
 Coeff:      0.137D+00 0.863D+00
 Gap=     0.569 Goal=   None    Shift=    0.000
 Gap=     0.353 Goal=   None    Shift=    0.000
 RMSDP=2.49D-03 MaxDP=4.16D-02 DE=-3.15D-01 OVMax= 8.68D-02

 Cycle   3  Pass 1  IDiag  1:
 E= -345.242667693070     Delta-E=       -0.052886369699 Rises=F Damp=F
 DIIS: error= 5.55D-03 at cycle   3 NSaved=   3.
 NSaved= 3 IEnMin= 3 EnMin= -345.242667693070     IErMin= 3 ErrMin= 5.55D-03
 ErrMax= 5.55D-03 EMaxC= 1.00D-01 BMatC= 1.91D-02 BMatP= 2.14D-01
 IDIUse=3 WtCom= 9.44D-01 WtEn= 5.55D-02
 Coeff-Com: -0.201D-01 0.151D+00 0.869D+00
 Coeff-En:   0.000D+00 0.000D+00 0.100D+01
 Coeff:     -0.189D-01 0.143D+00 0.876D+00
 Gap=     0.498 Goal=   None    Shift=    0.000
 Gap=     0.359 Goal=   None    Shift=    0.000
 RMSDP=6.81D-04 MaxDP=1.57D-02 DE=-5.29D-02 OVMax= 5.04D-02

 Cycle   4  Pass 1  IDiag  1:
 E= -345.250998683617     Delta-E=       -0.008330990547 Rises=F Damp=F
 DIIS: error= 4.39D-03 at cycle   4 NSaved=   4.
 NSaved= 4 IEnMin= 4 EnMin= -345.250998683617     IErMin= 4 ErrMin= 4.39D-03
 ErrMax= 4.39D-03 EMaxC= 1.00D-01 BMatC= 3.85D-03 BMatP= 1.91D-02
 IDIUse=3 WtCom= 9.56D-01 WtEn= 4.39D-02
 Coeff-Com: -0.708D-02-0.178D-01 0.928D-01 0.932D+00
 Coeff-En:   0.000D+00 0.000D+00 0.000D+00 0.100D+01
 Coeff:     -0.677D-02-0.170D-01 0.888D-01 0.935D+00
 Gap=     0.497 Goal=   None    Shift=    0.000
 Gap=     0.376 Goal=   None    Shift=    0.000
 RMSDP=3.77D-04 MaxDP=1.18D-02 DE=-8.33D-03 OVMax= 2.90D-02

 Cycle   5  Pass 1  IDiag  1:
 E= -345.254076522440     Delta-E=       -0.003077838823 Rises=F Damp=F
 DIIS: error= 2.33D-03 at cycle   5 NSaved=   5.
 NSaved= 5 IEnMin= 5 EnMin= -345.254076522440     IErMin= 5 ErrMin= 2.33D-03
 ErrMax= 2.33D-03 EMaxC= 1.00D-01 BMatC= 1.97D-03 BMatP= 3.85D-03
 IDIUse=3 WtCom= 9.77D-01 WtEn= 2.33D-02
 Coeff-Com:  0.121D-01-0.681D-01-0.437D+00-0.136D+00 0.163D+01
 Coeff-En:   0.000D+00 0.000D+00 0.000D+00 0.000D+00 0.100D+01
 Coeff:      0.118D-01-0.665D-01-0.427D+00-0.133D+00 0.161D+01
 Gap=     0.508 Goal=   None    Shift=    0.000
 Gap=     0.403 Goal=   None    Shift=    0.000
 RMSDP=5.91D-04 MaxDP=1.94D-02 DE=-3.08D-03 OVMax= 4.19D-02

 Cycle   6  Pass 1  IDiag  1:
 E= -345.256990744102     Delta-E=       -0.002914221662 Rises=F Damp=F
 DIIS: error= 1.20D-03 at cycle   6 NSaved=   6.
 NSaved= 6 IEnMin= 6 EnMin= -345.256990744102     IErMin= 6 ErrMin= 1.20D-03
 ErrMax= 1.20D-03 EMaxC= 1.00D-01 BMatC= 5.07D-04 BMatP= 1.97D-03
 IDIUse=3 WtCom= 9.88D-01 WtEn= 1.20D-02
 Coeff-Com:  0.287D-02 0.170D-02-0.519D-01-0.171D+00 0.185D+00 0.103D+01
 Coeff-En:   0.000D+00 0.000D+00 0.000D+00 0.000D+00 0.000D+00 0.100D+01
 Coeff:      0.284D-02 0.168D-02-0.513D-01-0.169D+00 0.183D+00 0.103D+01
 Gap=     0.511 Goal=   None    Shift=    0.000
 Gap=     0.412 Goal=   None    Shift=    0.000
 RMSDP=2.09D-04 MaxDP=4.57D-03 DE=-2.91D-03 OVMax= 1.66D-02

 Cycle   7  Pass 1  IDiag  1:
 E= -345.257623561295     Delta-E=       -0.000632817193 Rises=F Damp=F
 DIIS: error= 8.29D-04 at cycle   7 NSaved=   7.
 NSaved= 7 IEnMin= 7 EnMin= -345.257623561295     IErMin= 7 ErrMin= 8.29D-04
 ErrMax= 8.29D-04 EMaxC= 1.00D-01 BMatC= 2.63D-04 BMatP= 5.07D-04
 IDIUse=3 WtCom= 9.92D-01 WtEn= 8.29D-03
 Coeff-Com: -0.354D-02 0.244D-01 0.136D+00 0.304D-01-0.535D+00 0.938D-01
 Coeff-Com:  0.125D+01
 Coeff-En:   0.000D+00 0.000D+00 0.000D+00 0.000D+00 0.000D+00 0.000D+00
 Coeff-En:   0.100D+01
 Coeff:     -0.351D-02 0.242D-01 0.135D+00 0.302D-01-0.530D+00 0.931D-01
 Coeff:      0.125D+01
 Gap=     0.514 Goal=   None    Shift=    0.000
 Gap=     0.416 Goal=   None    Shift=    0.000
 RMSDP=2.06D-04 MaxDP=4.11D-03 DE=-6.33D-04 OVMax= 1.85D-02

 Cycle   8  Pass 1  IDiag  1:
 E= -345.258110923464     Delta-E=       -0.000487362169 Rises=F Damp=F
 DIIS: error= 6.29D-04 at cycle   8 NSaved=   8.
 NSaved= 8 IEnMin= 8 EnMin= -345.258110923464     IErMin= 8 ErrMin= 6.29D-04
 ErrMax= 6.29D-04 EMaxC= 1.00D-01 BMatC= 1.39D-04 BMatP= 2.63D-04
 IDIUse=3 WtCom= 9.94D-01 WtEn= 6.29D-03
 Coeff-Com:  0.234D-02-0.249D-01-0.113D+00 0.670D-01 0.382D+00-0.582D+00
 Coeff-Com: -0.120D+01 0.247D+01
 Coeff-En:   0.000D+00 0.000D+00 0.000D+00 0.000D+00 0.000D+00 0.000D+00
 Coeff-En:   0.000D+00 0.100D+01
 Coeff:      0.232D-02-0.248D-01-0.113D+00 0.666D-01 0.380D+00-0.578D+00
 Coeff:     -0.119D+01 0.246D+01
 Gap=     0.520 Goal=   None    Shift=    0.000
 Gap=     0.422 Goal=   None    Shift=    0.000
 RMSDP=3.15D-04 MaxDP=6.13D-03 DE=-4.87D-04 OVMax= 2.97D-02

 Cycle   9  Pass 1  IDiag  1:
 E= -345.258603099869     Delta-E=       -0.000492176404 Rises=F Damp=F
 DIIS: error= 4.31D-04 at cycle   9 NSaved=   9.
 NSaved= 9 IEnMin= 9 EnMin= -345.258603099869     IErMin= 9 ErrMin= 4.31D-04
 ErrMax= 4.31D-04 EMaxC= 1.00D-01 BMatC= 4.01D-05 BMatP= 1.39D-04
 IDIUse=3 WtCom= 9.96D-01 WtEn= 4.31D-03
 Coeff-Com:  0.133D-02-0.513D-02-0.402D-01-0.556D-01 0.212D+00 0.140D+00
 Coeff-Com: -0.184D+00-0.895D+00 0.183D+01
 Coeff-En:   0.000D+00 0.000D+00 0.000D+00 0.000D+00 0.000D+00 0.000D+00
 Coeff-En:   0.000D+00 0.000D+00 0.100D+01
 Coeff:      0.133D-02-0.511D-02-0.400D-01-0.554D-01 0.211D+00 0.140D+00
 Coeff:     -0.184D+00-0.891D+00 0.182D+01
 Gap=     0.524 Goal=   None    Shift=    0.000
 Gap=     0.425 Goal=   None    Shift=    0.000
 RMSDP=2.03D-04 MaxDP=4.10D-03 DE=-4.92D-04 OVMax= 1.87D-02

 Cycle  10  Pass 1  IDiag  1:
 E= -345.258740984289     Delta-E=       -0.000137884421 Rises=F Damp=F
 DIIS: error= 1.68D-04 at cycle  10 NSaved=  10.
 NSaved=10 IEnMin=10 EnMin= -345.258740984289     IErMin=10 ErrMin= 1.68D-04
 ErrMax= 1.68D-04 EMaxC= 1.00D-01 BMatC= 6.25D-06 BMatP= 4.01D-05
 IDIUse=3 WtCom= 9.98D-01 WtEn= 1.68D-03
 Coeff-Com: -0.432D-03 0.425D-02 0.214D-01-0.203D-01-0.554D-01 0.868D-01
 Coeff-Com:  0.197D+00-0.281D+00-0.240D+00 0.129D+01
 Coeff-En:   0.000D+00 0.000D+00 0.000D+00 0.000D+00 0.000D+00 0.000D+00
 Coeff-En:   0.000D+00 0.000D+00 0.000D+00 0.100D+01
 Coeff:     -0.431D-03 0.424D-02 0.213D-01-0.203D-01-0.553D-01 0.866D-01
 Coeff:      0.197D+00-0.280D+00-0.240D+00 0.129D+01
 Gap=     0.525 Goal=   None    Shift=    0.000
 Gap=     0.425 Goal=   None    Shift=    0.000
 RMSDP=4.20D-05 MaxDP=8.57D-04 DE=-1.38D-04 OVMax= 4.09D-03

 Cycle  11  Pass 1  IDiag  1:
 E= -345.258752496263     Delta-E=       -0.000011511974 Rises=F Damp=F
 DIIS: error= 7.81D-05 at cycle  11 NSaved=  11.
 NSaved=11 IEnMin=11 EnMin= -345.258752496263     IErMin=11 ErrMin= 7.81D-05
 ErrMax= 7.81D-05 EMaxC= 1.00D-01 BMatC= 1.93D-06 BMatP= 6.25D-06
 IDIUse=1 WtCom= 1.00D+00 WtEn= 0.00D+00
 Coeff-Com: -0.257D-03 0.973D-03 0.906D-02 0.414D-02-0.341D-01-0.232D-01
 Coeff-Com:  0.499D-02 0.212D+00-0.373D+00-0.122D+00 0.132D+01
 Coeff:     -0.257D-03 0.973D-03 0.906D-02 0.414D-02-0.341D-01-0.232D-01
 Coeff:      0.499D-02 0.212D+00-0.373D+00-0.122D+00 0.132D+01
 Gap=     0.525 Goal=   None    Shift=    0.000
 Gap=     0.425 Goal=   None    Shift=    0.000
 RMSDP=2.26D-05 MaxDP=4.31D-04 DE=-1.15D-05 OVMax= 2.28D-03

 Cycle  12  Pass 1  IDiag  1:
 E= -345.258756032110     Delta-E=       -0.000003535847 Rises=F Damp=F
 DIIS: error= 4.70D-05 at cycle  12 NSaved=  12.
 NSaved=12 IEnMin=12 EnMin= -345.258756032110     IErMin=12 ErrMin= 4.70D-05
 ErrMax= 4.70D-05 EMaxC= 1.00D-01 BMatC= 6.91D-07 BMatP= 1.93D-06
 IDIUse=1 WtCom= 1.00D+00 WtEn= 0.00D+00
 Coeff-Com:  0.212D-03-0.144D-02-0.799D-02-0.500D-02 0.374D-01-0.979D-02
 Coeff-Com: -0.680D-01-0.725D-02 0.214D+00-0.302D+00-0.475D+00 0.163D+01
 Coeff:      0.212D-03-0.144D-02-0.799D-02-0.500D-02 0.374D-01-0.979D-02
 Coeff:     -0.680D-01-0.725D-02 0.214D+00-0.302D+00-0.475D+00 0.163D+01
 Gap=     0.525 Goal=   None    Shift=    0.000
 Gap=     0.425 Goal=   None    Shift=    0.000
 RMSDP=1.57D-05 MaxDP=3.61D-04 DE=-3.54D-06 OVMax= 1.58D-03

 Cycle  13  Pass 1  IDiag  1:
 E= -345.258757388522     Delta-E=       -0.000001356411 Rises=F Damp=F
 DIIS: error= 2.58D-05 at cycle  13 NSaved=  13.
 NSaved=13 IEnMin=13 EnMin= -345.258757388522     IErMin=13 ErrMin= 2.58D-05
 ErrMax= 2.58D-05 EMaxC= 1.00D-01 BMatC= 2.33D-07 BMatP= 6.91D-07
 IDIUse=1 WtCom= 1.00D+00 WtEn= 0.00D+00
 Coeff-Com:  0.470D-04-0.882D-04-0.123D-02-0.385D-02 0.126D-01 0.584D-02
 Coeff-Com:  0.935D-02-0.693D-01 0.102D+00 0.878D-01-0.395D+00-0.210D+00
 Coeff-Com:  0.146D+01
 Coeff:      0.470D-04-0.882D-04-0.123D-02-0.385D-02 0.126D-01 0.584D-02
 Coeff:      0.935D-02-0.693D-01 0.102D+00 0.878D-01-0.395D+00-0.210D+00
 Coeff:      0.146D+01
 Gap=     0.525 Goal=   None    Shift=    0.000
 Gap=     0.425 Goal=   None    Shift=    0.000
 RMSDP=8.92D-06 MaxDP=3.33D-04 DE=-1.36D-06 OVMax= 8.10D-04

 Cycle  14  Pass 1  IDiag  1:
 E= -345.258757828826     Delta-E=       -0.000000440304 Rises=F Damp=F
 DIIS: error= 1.36D-05 at cycle  14 NSaved=  14.
 NSaved=14 IEnMin=14 EnMin= -345.258757828826     IErMin=14 ErrMin= 1.36D-05
 ErrMax= 1.36D-05 EMaxC= 1.00D-01 BMatC= 6.84D-08 BMatP= 2.33D-07
 IDIUse=1 WtCom= 1.00D+00 WtEn= 0.00D+00
 Coeff-Com: -0.617D-04 0.423D-03 0.267D-02 0.150D-03-0.970D-02 0.288D-02
 Coeff-Com:  0.197D-01 0.418D-02-0.752D-01 0.109D+00 0.177D+00-0.609D+00
 Coeff-Com:  0.576D-01 0.132D+01
 Coeff:     -0.617D-04 0.423D-03 0.267D-02 0.150D-03-0.970D-02 0.288D-02
 Coeff:      0.197D-01 0.418D-02-0.752D-01 0.109D+00 0.177D+00-0.609D+00
 Coeff:      0.576D-01 0.132D+01
 Gap=     0.525 Goal=   None    Shift=    0.000
 Gap=     0.425 Goal=   None    Shift=    0.000
 RMSDP=5.17D-06 MaxDP=1.95D-04 DE=-4.40D-07 OVMax= 4.74D-04

 Cycle  15  Pass 1  IDiag  1:
 E= -345.258757957049     Delta-E=       -0.000000128223 Rises=F Damp=F
 DIIS: error= 9.00D-06 at cycle  15 NSaved=  15.
 NSaved=15 IEnMin=15 EnMin= -345.258757957049     IErMin=15 ErrMin= 9.00D-06
 ErrMax= 9.00D-06 EMaxC= 1.00D-01 BMatC= 1.63D-08 BMatP= 6.84D-08
 IDIUse=1 WtCom= 1.00D+00 WtEn= 0.00D+00
 Coeff-Com:  0.119D-04-0.126D-03-0.512D-03 0.116D-03 0.536D-03-0.899D-03
 Coeff-Com: -0.108D-01 0.148D-01-0.580D-03-0.543D-01 0.440D-01 0.217D+00
 Coeff-Com: -0.335D+00-0.504D+00 0.163D+01
 Coeff:      0.119D-04-0.126D-03-0.512D-03 0.116D-03 0.536D-03-0.899D-03
 Coeff:     -0.108D-01 0.148D-01-0.580D-03-0.543D-01 0.440D-01 0.217D+00
 Coeff:     -0.335D+00-0.504D+00 0.163D+01
 Gap=     0.525 Goal=   None    Shift=    0.000
 Gap=     0.425 Goal=   None    Shift=    0.000
 RMSDP=3.04D-06 MaxDP=9.57D-05 DE=-1.28D-07 OVMax= 2.61D-04

 Cycle  16  Pass 1  IDiag  1:
 E= -345.258757988841     Delta-E=       -0.000000031792 Rises=F Damp=F
 DIIS: error= 7.48D-06 at cycle  16 NSaved=  16.
 NSaved=16 IEnMin=16 EnMin= -345.258757988841     IErMin=16 ErrMin= 7.48D-06
 ErrMax= 7.48D-06 EMaxC= 1.00D-01 BMatC= 3.92D-09 BMatP= 1.63D-08
 IDIUse=1 WtCom= 1.00D+00 WtEn= 0.00D+00
 Coeff-Com:  0.598D-05-0.312D-04-0.317D-03-0.813D-04 0.187D-02-0.846D-03
 Coeff-Com: -0.350D-03-0.294D-02 0.130D-01-0.721D-02-0.464D-01 0.828D-01
 Coeff-Com:  0.615D-01-0.167D+00-0.420D+00 0.149D+01
 Coeff:      0.598D-05-0.312D-04-0.317D-03-0.813D-04 0.187D-02-0.846D-03
 Coeff:     -0.350D-03-0.294D-02 0.130D-01-0.721D-02-0.464D-01 0.828D-01
 Coeff:      0.615D-01-0.167D+00-0.420D+00 0.149D+01
 Gap=     0.525 Goal=   None    Shift=    0.000
 Gap=     0.425 Goal=   None    Shift=    0.000
 RMSDP=1.10D-06 MaxDP=3.49D-05 DE=-3.18D-08 OVMax= 6.78D-05

 Cycle  17  Pass 1  IDiag  1:
 E= -345.258757994479     Delta-E=       -0.000000005638 Rises=F Damp=F
 DIIS: error= 3.90D-06 at cycle  17 NSaved=  17.
 NSaved=17 IEnMin=17 EnMin= -345.258757994479     IErMin=17 ErrMin= 3.90D-06
 ErrMax= 3.90D-06 EMaxC= 1.00D-01 BMatC= 1.06D-09 BMatP= 3.92D-09
 IDIUse=1 WtCom= 1.00D+00 WtEn= 0.00D+00
 Coeff-Com: -0.347D-05 0.358D-04 0.149D-03-0.323D-04-0.323D-03 0.411D-03
 Coeff-Com:  0.300D-02-0.409D-02-0.123D-02 0.152D-01-0.804D-02-0.647D-01
 Coeff-Com:  0.803D-01 0.148D+00-0.385D+00-0.114D+00 0.133D+01
 Coeff:     -0.347D-05 0.358D-04 0.149D-03-0.323D-04-0.323D-03 0.411D-03
 Coeff:      0.300D-02-0.409D-02-0.123D-02 0.152D-01-0.804D-02-0.647D-01
 Coeff:      0.803D-01 0.148D+00-0.385D+00-0.114D+00 0.133D+01
 Gap=     0.525 Goal=   None    Shift=    0.000
 Gap=     0.425 Goal=   None    Shift=    0.000
 RMSDP=4.49D-07 MaxDP=1.17D-05 DE=-5.64D-09 OVMax= 2.61D-05

 Cycle  18  Pass 1  IDiag  1:
 E= -345.258757995983     Delta-E=       -0.000000001504 Rises=F Damp=F
 DIIS: error= 2.23D-06 at cycle  18 NSaved=  18.
 NSaved=18 IEnMin=18 EnMin= -345.258757995983     IErMin=18 ErrMin= 2.23D-06
 ErrMax= 2.23D-06 EMaxC= 1.00D-01 BMatC= 4.06D-10 BMatP= 1.06D-09
 IDIUse=1 WtCom= 1.00D+00 WtEn= 0.00D+00
 Coeff-Com: -0.664D-06-0.112D-05 0.414D-04 0.572D-04-0.566D-03 0.318D-03
 Coeff-Com: -0.760D-03 0.175D-02-0.343D-02-0.285D-02 0.158D-01-0.237D-02
 Coeff-Com: -0.406D-01-0.801D-02 0.242D+00-0.316D+00-0.625D+00 0.174D+01
 Coeff:     -0.664D-06-0.112D-05 0.414D-04 0.572D-04-0.566D-03 0.318D-03
 Coeff:     -0.760D-03 0.175D-02-0.343D-02-0.285D-02 0.158D-01-0.237D-02
 Coeff:     -0.406D-01-0.801D-02 0.242D+00-0.316D+00-0.625D+00 0.174D+01
 Gap=     0.525 Goal=   None    Shift=    0.000
 Gap=     0.425 Goal=   None    Shift=    0.000
 RMSDP=3.73D-07 MaxDP=8.08D-06 DE=-1.50D-09 OVMax= 2.48D-05

 Cycle  19  Pass 1  IDiag  1:
 E= -345.258757996681     Delta-E=       -0.000000000698 Rises=F Damp=F
 DIIS: error= 1.24D-06 at cycle  19 NSaved=  19.
 NSaved=19 IEnMin=19 EnMin= -345.258757996681     IErMin=19 ErrMin= 1.24D-06
 ErrMax= 1.24D-06 EMaxC= 1.00D-01 BMatC= 1.43D-10 BMatP= 4.06D-10
 IDIUse=1 WtCom= 1.00D+00 WtEn= 0.00D+00
 Coeff-Com: -0.768D-06 0.498D-05 0.211D-04 0.708D-04-0.690D-04-0.279D-03
 Coeff-Com:  0.135D-03 0.114D-02-0.473D-03-0.152D-02 0.379D-03 0.141D-01
 Coeff-Com: -0.983D-02-0.315D-01 0.168D-01 0.195D+00-0.287D+00-0.696D+00
 Coeff-Com:  0.180D+01
 Coeff:     -0.768D-06 0.498D-05 0.211D-04 0.708D-04-0.690D-04-0.279D-03
 Coeff:      0.135D-03 0.114D-02-0.473D-03-0.152D-02 0.379D-03 0.141D-01
 Coeff:     -0.983D-02-0.315D-01 0.168D-01 0.195D+00-0.287D+00-0.696D+00
 Coeff:      0.180D+01
 Gap=     0.525 Goal=   None    Shift=    0.000
 Gap=     0.425 Goal=   None    Shift=    0.000
 RMSDP=2.60D-07 MaxDP=6.45D-06 DE=-6.98D-10 OVMax= 1.26D-05

 Cycle  20  Pass 1  IDiag  1:
 E= -345.258757996953     Delta-E=       -0.000000000271 Rises=F Damp=F
 DIIS: error= 5.41D-07 at cycle  20 NSaved=  20.
 NSaved=20 IEnMin=20 EnMin= -345.258757996953     IErMin=20 ErrMin= 5.41D-07
 ErrMax= 5.41D-07 EMaxC= 1.00D-01 BMatC= 3.25D-11 BMatP= 1.43D-10
 IDIUse=1 WtCom= 1.00D+00 WtEn= 0.00D+00
 Coeff-Com:  0.104D-07 0.129D-05-0.633D-05-0.243D-04 0.115D-03 0.338D-04
 Coeff-Com:  0.380D-03-0.120D-02 0.112D-02 0.191D-02-0.530D-02-0.641D-02
 Coeff-Com:  0.204D-01 0.134D-01-0.897D-01 0.433D-01 0.298D+00-0.379D+00
 Coeff-Com: -0.494D+00 0.160D+01
 Coeff:      0.104D-07 0.129D-05-0.633D-05-0.243D-04 0.115D-03 0.338D-04
 Coeff:      0.380D-03-0.120D-02 0.112D-02 0.191D-02-0.530D-02-0.641D-02
 Coeff:      0.204D-01 0.134D-01-0.897D-01 0.433D-01 0.298D+00-0.379D+00
 Coeff:     -0.494D+00 0.160D+01
 Gap=     0.525 Goal=   None    Shift=    0.000
 Gap=     0.425 Goal=   None    Shift=    0.000
 RMSDP=1.26D-07 MaxDP=3.05D-06 DE=-2.71D-10 OVMax= 7.09D-06

 Cycle  21  Pass 1  IDiag  1:
 E= -345.258757997017     Delta-E=       -0.000000000064 Rises=F Damp=F
 DIIS: error= 1.59D-07 at cycle  21 NSaved=  20.
 NSaved=20 IEnMin=20 EnMin= -345.258757997017     IErMin=20 ErrMin= 1.59D-07
 ErrMax= 1.59D-07 EMaxC= 1.00D-01 BMatC= 4.02D-12 BMatP= 3.25D-11
 IDIUse=1 WtCom= 1.00D+00 WtEn= 0.00D+00
 Coeff-Com:  0.961D-07 0.129D-05-0.662D-05-0.206D-04 0.531D-04 0.985D-05
 Coeff-Com: -0.126D-03-0.715D-04 0.287D-03 0.378D-03-0.277D-02 0.169D-02
 Coeff-Com:  0.278D-02 0.362D-02-0.340D-01 0.269D-01 0.137D+00-0.212D+00
 Coeff-Com: -0.266D+00 0.134D+01
 Coeff:      0.961D-07 0.129D-05-0.662D-05-0.206D-04 0.531D-04 0.985D-05
 Coeff:     -0.126D-03-0.715D-04 0.287D-03 0.378D-03-0.277D-02 0.169D-02
 Coeff:      0.278D-02 0.362D-02-0.340D-01 0.269D-01 0.137D+00-0.212D+00
 Coeff:     -0.266D+00 0.134D+01
 Gap=     0.525 Goal=   None    Shift=    0.000
 Gap=     0.425 Goal=   None    Shift=    0.000
 RMSDP=3.63D-08 MaxDP=6.89D-07 DE=-6.41D-11 OVMax= 2.22D-06

 Cycle  22  Pass 1  IDiag  1:
 E= -345.258757997020     Delta-E=       -0.000000000003 Rises=F Damp=F
 DIIS: error= 4.81D-08 at cycle  22 NSaved=  20.
 NSaved=20 IEnMin=20 EnMin= -345.258757997020     IErMin=20 ErrMin= 4.81D-08
 ErrMax= 4.81D-08 EMaxC= 1.00D-01 BMatC= 6.59D-13 BMatP= 4.02D-12
 IDIUse=1 WtCom= 1.00D+00 WtEn= 0.00D+00
 Coeff-Com:  0.123D-05 0.500D-05-0.153D-04-0.120D-04-0.419D-04 0.185D-03
 Coeff-Com: -0.169D-03-0.272D-03 0.752D-03 0.105D-02-0.274D-02-0.237D-02
 Coeff-Com:  0.131D-01-0.553D-02-0.421D-01 0.468D-01 0.852D-01-0.218D+00
 Coeff-Com: -0.743D-01 0.120D+01
 Coeff:      0.123D-05 0.500D-05-0.153D-04-0.120D-04-0.419D-04 0.185D-03
 Coeff:     -0.169D-03-0.272D-03 0.752D-03 0.105D-02-0.274D-02-0.237D-02
 Coeff:      0.131D-01-0.553D-02-0.421D-01 0.468D-01 0.852D-01-0.218D+00
 Coeff:     -0.743D-01 0.120D+01
 Gap=     0.525 Goal=   None    Shift=    0.000
 Gap=     0.425 Goal=   None    Shift=    0.000
 RMSDP=1.16D-08 MaxDP=2.18D-07 DE=-2.96D-12 OVMax= 8.61D-07

 Cycle  23  Pass 1  IDiag  1:
 E= -345.258757997021     Delta-E=       -0.000000000001 Rises=F Damp=F
 DIIS: error= 2.89D-08 at cycle  23 NSaved=  20.
 NSaved=20 IEnMin=20 EnMin= -345.258757997021     IErMin=20 ErrMin= 2.89D-08
 ErrMax= 2.89D-08 EMaxC= 1.00D-01 BMatC= 1.40D-13 BMatP= 6.59D-13
 IDIUse=1 WtCom= 1.00D+00 WtEn= 0.00D+00
 Coeff-Com:  0.568D-06 0.231D-05-0.761D-05 0.177D-05 0.784D-05 0.177D-04
 Coeff-Com: -0.475D-04-0.888D-04 0.432D-03-0.286D-03-0.387D-03-0.779D-03
 Coeff-Com:  0.525D-02-0.235D-02-0.245D-01 0.269D-01 0.682D-01-0.234D+00
 Coeff-Com: -0.126D+00 0.129D+01
 Coeff:      0.568D-06 0.231D-05-0.761D-05 0.177D-05 0.784D-05 0.177D-04
 Coeff:     -0.475D-04-0.888D-04 0.432D-03-0.286D-03-0.387D-03-0.779D-03
 Coeff:      0.525D-02-0.235D-02-0.245D-01 0.269D-01 0.682D-01-0.234D+00
 Coeff:     -0.126D+00 0.129D+01
 Gap=     0.525 Goal=   None    Shift=    0.000
 Gap=     0.425 Goal=   None    Shift=    0.000
 RMSDP=4.36D-09 MaxDP=1.08D-07 DE=-7.96D-13 OVMax= 1.56D-07

 SCF Done:  E(UHF) =  -345.258757997     A.U. after   23 cycles
             Convg  =    0.4359D-08             -V/T =  2.0014
 <Sx>= 0.0000 <Sy>= 0.0000 <Sz>= 0.5000 <S**2>= 1.0009 S= 0.6184
 <L.S>= 0.000000000000E+00
 KE= 3.447789845194D+02 PE=-1.415033239049D+03 EE= 4.223854650488D+02
 Annihilation of the first spin contaminant:
 S**2 before annihilation     1.0009,   after     0.7764
 Leave Link  502 at Thu Apr 26 14:07:02 2018, MaxMem=  671088640 cpu:     357.5
 (Enter /shared/apps/gaussian/G09_LINUX_LINDA/g09/l801.exe)
 Range of M.O.s used for correlation:     1   127
 NBasis=   127 NAE=    29 NBE=    28 NFC=     0 NFV=     0
 NROrb=    127 NOA=    29 NOB=    28 NVA=    98 NVB=    99
 Leave Link  801 at Thu Apr 26 14:07:02 2018, MaxMem=  671088640 cpu:       0.6
 (Enter /shared/apps/gaussian/G09_LINUX_LINDA/g09/l1101.exe)
 Using compressed storage, NAtomX=    18.
 Will process  19 centers per pass.
 Leave Link 1101 at Thu Apr 26 14:07:03 2018, MaxMem=  671088640 cpu:       7.4
 (Enter /shared/apps/gaussian/G09_LINUX_LINDA/g09/l1102.exe)
 Symmetrizing basis deriv contribution to polar:
 IMax=3 JMax=2 DiffMx= 0.00D+00
 Leave Link 1102 at Thu Apr 26 14:07:03 2018, MaxMem=  671088640 cpu:       1.3
 (Enter /shared/apps/gaussian/G09_LINUX_LINDA/g09/l1110.exe)
 Forming Gx(P) for the SCF density, NAtomX=    18.
 Integral derivatives from FoFDir/FoFCou, PRISM(SPDF).
 Do as many integral derivatives as possible in FoFDir.
 G2DrvN: MDV=     671088392.
 G2DrvN: will do    19 centers at a time, making    1 passes doing MaxLOS=2.
 Calling FoFCou, ICntrl=  3107 FMM=F I1Cent=   0 AccDes= 0.00D+00.
 FoFCou: FMM=F IPFlag=           0 FMFlag=      100000 FMFlg1=           0
         NFxFlg=           0 DoJE=F BraDBF=F KetDBF=F FulRan=T
         Omega=  0.000000  0.000000  1.000000  0.000000  0.000000 ICntrl=    3107 IOpCl=  1
         NMat0=    1 NMatS0=    1 NMatT0=    0 NMatD0=    1 NMtDS0=    0 NMtDT0=    0
         I1Cent=           0 NGrid=           0.
 Symmetry not used in FoFCou.
 FoFDir/FoFCou used for L=0 through L=2.
 End of G2Drv Frequency-dependent properties file   721 does not exist.
 End of G2Drv Frequency-dependent properties file   722 does not exist.
 Leave Link 1110 at Thu Apr 26 14:07:06 2018, MaxMem=  671088640 cpu:      23.7
 (Enter /shared/apps/gaussian/G09_LINUX_LINDA/g09/l1002.exe)
 Minotr:  UHF open shell wavefunction.
          IDoAtm=111111111111111111
          Direct CPHF calculation.
          Differentiating once with respect to electric field.
                with respect to dipole field.
          Differentiating once with respect to nuclear coordinates.
          Requested convergence is 1.0D-08 RMS, and 1.0D-07 maximum.
          Secondary convergence is 1.0D-12 RMS, and 1.0D-12 maximum.
          NewPWx=T KeepS1=F KeepF1=F KeepIn=T MapXYZ=F SortEE=F KeepMc=T.
          MDV=     671088456 using IRadAn=       2.
          Keep R1 and R2 ints in memory in canonical form, NReq=66894031.
 Symmetry not used in FoFDir.
 MinBra= 0 MaxBra= 2 Meth= 1.
 IRaf=       0 NMat=   1 IRICut=       1 DoRegI=T DoRafI=F ISym2E= 0 JSym2E=0.
          Solving linear equations simultaneously, MaxMat=       0.
          There are    57 degrees of freedom in the 1st order CPHF.  IDoFFX=5.
     54 vectors produced by pass  0 Test12= 9.85D-15 1.75D-09 XBig12= 3.57D+01 3.41D+00.
 AX will form    54 AO Fock derivatives at one time.
     54 vectors produced by pass  1 Test12= 9.85D-15 1.75D-09 XBig12= 2.07D+00 2.63D-01.
     54 vectors produced by pass  2 Test12= 9.85D-15 1.75D-09 XBig12= 1.69D-01 7.49D-02.
     54 vectors produced by pass  3 Test12= 9.85D-15 1.75D-09 XBig12= 2.90D-03 9.35D-03.
     54 vectors produced by pass  4 Test12= 9.85D-15 1.75D-09 XBig12= 4.22D-05 1.25D-03.
     54 vectors produced by pass  5 Test12= 9.85D-15 1.75D-09 XBig12= 4.56D-07 6.97D-05.
     54 vectors produced by pass  6 Test12= 9.85D-15 1.75D-09 XBig12= 3.77D-09 5.26D-06.
     30 vectors produced by pass  7 Test12= 9.85D-15 1.75D-09 XBig12= 3.52D-11 5.28D-07.
      5 vectors produced by pass  8 Test12= 9.85D-15 1.75D-09 XBig12= 3.10D-13 5.05D-08.
      3 vectors produced by pass  9 Test12= 9.85D-15 1.75D-09 XBig12= 3.11D-15 4.78D-09.
 Inverted reduced A of dimension   416 with in-core refinement.
 FullF1:  Do perturbations    1 to     3.
 Isotropic polarizability for W=    0.000000       74.44 Bohr**3.
 End of Minotr Frequency-dependent properties file   721 does not exist.
 End of Minotr Frequency-dependent properties file   722 does not exist.
 Leave Link 1002 at Thu Apr 26 14:07:33 2018, MaxMem=  671088640 cpu:     272.3
 (Enter /shared/apps/gaussian/G09_LINUX_LINDA/g09/l601.exe)
 Copying SCF densities to generalized density rwf, IOpCl= 1 IROHF=0.

 **********************************************************************

            Population analysis using the SCF density.

 **********************************************************************

 Alpha  occ. eigenvalues --  -20.64353 -20.62569 -11.25061 -11.24475 -11.22574
 Alpha  occ. eigenvalues --  -11.22546 -11.22424  -1.50919  -1.18083  -1.11421
 Alpha  occ. eigenvalues --   -1.01479  -0.95125  -0.88259  -0.74136  -0.71927
 Alpha  occ. eigenvalues --   -0.71155  -0.64760  -0.62305  -0.61380  -0.61029
 Alpha  occ. eigenvalues --   -0.55855  -0.54952  -0.53498  -0.51777  -0.51244
 Alpha  occ. eigenvalues --   -0.48656  -0.48255  -0.44005  -0.33619
 Alpha virt. eigenvalues --    0.18924   0.21996   0.24189   0.26268   0.26787
 Alpha virt. eigenvalues --    0.29367   0.31398   0.31622   0.33137   0.34278
 Alpha virt. eigenvalues --    0.35802   0.38041   0.38951   0.42581   0.45785
 Alpha virt. eigenvalues --    0.49976   0.59567   0.67628   0.70639   0.73883
 Alpha virt. eigenvalues --    0.75517   0.77400   0.79596   0.83101   0.85021
 Alpha virt. eigenvalues --    0.92910   0.94271   0.95649   0.97915   0.99130
 Alpha virt. eigenvalues --    1.02924   1.05039   1.07580   1.07826   1.11793
 Alpha virt. eigenvalues --    1.13240   1.14164   1.16841   1.17331   1.18660
 Alpha virt. eigenvalues --    1.20032   1.21480   1.21502   1.23867   1.25115
 Alpha virt. eigenvalues --    1.27776   1.30126   1.31402   1.35235   1.41251
 Alpha virt. eigenvalues --    1.44967   1.52088   1.57559   1.60378   1.66676
 Alpha virt. eigenvalues --    1.68706   1.74644   1.77775   1.80056   1.80651
 Alpha virt. eigenvalues --    1.90055   1.93585   2.04183   2.10883   2.13422
 Alpha virt. eigenvalues --    2.14390   2.17159   2.18740   2.20262   2.32472
 Alpha virt. eigenvalues --    2.34223   2.34980   2.42536   2.46410   2.49114
 Alpha virt. eigenvalues --    2.54712   2.56683   2.62622   2.68776   2.74910
 Alpha virt. eigenvalues --    2.75930   2.76452   2.77973   2.83120   2.85636
 Alpha virt. eigenvalues --    2.86036   2.89251   3.01437   3.23666   3.29734
 Alpha virt. eigenvalues --    3.39939   3.97332   4.20188   4.52840   4.67446
 Alpha virt. eigenvalues --    4.71058   4.75099   4.96085
  Beta  occ. eigenvalues --  -20.62449 -20.61531 -11.23834 -11.23589 -11.22896
  Beta  occ. eigenvalues --  -11.22755 -11.22611  -1.47208  -1.12510  -1.09871
  Beta  occ. eigenvalues --   -0.99834  -0.95170  -0.86262  -0.71966  -0.71042
  Beta  occ. eigenvalues --   -0.64557  -0.63166  -0.61216  -0.59402  -0.58708
  Beta  occ. eigenvalues --   -0.55250  -0.54409  -0.53417  -0.51407  -0.48437
  Beta  occ. eigenvalues --   -0.45932  -0.45743  -0.35322
  Beta virt. eigenvalues --    0.07193   0.20515   0.21898   0.24400   0.26571
  Beta virt. eigenvalues --    0.26768   0.29541   0.31834   0.32886   0.33593
  Beta virt. eigenvalues --    0.35828   0.36331   0.38848   0.39925   0.43269
  Beta virt. eigenvalues --    0.49462   0.50333   0.59819   0.67818   0.71184
  Beta virt. eigenvalues --    0.73745   0.76463   0.78798   0.79748   0.84664
  Beta virt. eigenvalues --    0.86513   0.91632   0.95790   0.98000   0.99549
  Beta virt. eigenvalues --    0.99914   1.04073   1.06161   1.07951   1.08658
  Beta virt. eigenvalues --    1.12098   1.13603   1.13889   1.16863   1.17555
  Beta virt. eigenvalues --    1.19629   1.21042   1.21802   1.22460   1.24017
  Beta virt. eigenvalues --    1.25365   1.28313   1.32103   1.32428   1.35953
  Beta virt. eigenvalues --    1.41675   1.45596   1.54084   1.58148   1.61652
  Beta virt. eigenvalues --    1.69139   1.70165   1.76887   1.77982   1.80456
  Beta virt. eigenvalues --    1.81212   1.92132   1.95707   2.06294   2.11641
  Beta virt. eigenvalues --    2.14687   2.14903   2.19169   2.19663   2.21838
  Beta virt. eigenvalues --    2.33616   2.35438   2.36808   2.42734   2.46998
  Beta virt. eigenvalues --    2.50209   2.55432   2.56744   2.62524   2.68732
  Beta virt. eigenvalues --    2.75863   2.76361   2.77529   2.80441   2.83829
  Beta virt. eigenvalues --    2.86349   2.86827   2.91119   3.02270   3.23947
  Beta virt. eigenvalues --    3.30713   3.40129   3.97790   4.22035   4.53376
  Beta virt. eigenvalues --    4.67453   4.70885   4.76176   4.96656
          Condensed to atoms (all electrons):
              1          2          3          4          5          6
     1  O    8.315712   0.057675  -0.003299   0.000330  -0.057187  -0.000001
     2  O    0.057675   8.147050   0.005621  -0.000437  -0.002151  -0.000004
     3  C   -0.003299   0.005621   5.014905   0.605084   0.359303  -0.043381
     4  C    0.000330  -0.000437   0.605084   4.978848  -0.049685   0.345961
     5  C   -0.057187  -0.002151   0.359303  -0.049685   5.309880   0.003338
     6  C   -0.000001  -0.000004  -0.043381   0.345961   0.003338   5.101979
     7  C    0.000002  -0.000009  -0.043777   0.344353  -0.007421  -0.066482
     8  H   -0.027697   0.255724   0.001575   0.000656  -0.000522  -0.000002
     9  H    0.000011   0.000264   0.395622  -0.039350  -0.038627  -0.005174
    10  H    0.034686  -0.024526  -0.036751  -0.003200   0.231068  -0.000044
    11  H   -0.000292   0.000326  -0.032882   0.002199   0.385570  -0.000075
    12  H   -0.000020   0.000269  -0.037059   0.000171   0.384914   0.000032
    13  H    0.000000  -0.000002  -0.000849  -0.040688   0.000145   0.395259
    14  H    0.000000   0.000000  -0.000530  -0.042374  -0.000097   0.389898
    15  H    0.000000   0.000001   0.000442  -0.042275  -0.000083   0.388378
    16  H    0.000040  -0.000004  -0.002869  -0.035538  -0.000713   0.003624
    17  H   -0.000004   0.000003   0.000738  -0.041743   0.000192  -0.002193
    18  H    0.000000   0.000000   0.000023  -0.041419   0.000196  -0.001565
              7          8          9         10         11         12
     1  O    0.000002  -0.027697   0.000011   0.034686  -0.000292  -0.000020
     2  O   -0.000009   0.255724   0.000264  -0.024526   0.000326   0.000269
     3  C   -0.043777   0.001575   0.395622  -0.036751  -0.032882  -0.037059
     4  C    0.344353   0.000656  -0.039350  -0.003200   0.002199   0.000171
     5  C   -0.007421  -0.000522  -0.038627   0.231068   0.385570   0.384914
     6  C   -0.066482  -0.000002  -0.005174  -0.000044  -0.000075   0.000032
     7  C    5.108043  -0.000005   0.003450   0.000242   0.000126  -0.000445
     8  H   -0.000005   0.316206   0.000026  -0.001525   0.000005   0.000027
     9  H    0.003450   0.000026   0.490387   0.000074  -0.002871   0.002687
    10  H    0.000242  -0.001525   0.000074   0.505444  -0.022127  -0.020374
    11  H    0.000126   0.000005  -0.002871  -0.022127   0.486295  -0.022489
    12  H   -0.000445   0.000027   0.002687  -0.020374  -0.022489   0.494006
    13  H    0.003651   0.000000   0.003016  -0.000002  -0.000008   0.000005
    14  H   -0.000817   0.000001   0.000118  -0.000004   0.000005   0.000006
    15  H   -0.001499  -0.000019   0.000138   0.000018  -0.000001  -0.000004
    16  H    0.394985   0.000000   0.000037  -0.000077   0.000052   0.000688
    17  H    0.390967  -0.000020  -0.000101   0.000095  -0.000008  -0.000095
    18  H    0.390008   0.000001  -0.000108  -0.000033   0.000009   0.000056
             13         14         15         16         17         18
     1  O    0.000000   0.000000   0.000000   0.000040  -0.000004   0.000000
     2  O   -0.000002   0.000000   0.000001  -0.000004   0.000003   0.000000
     3  C   -0.000849  -0.000530   0.000442  -0.002869   0.000738   0.000023
     4  C   -0.040688  -0.042374  -0.042275  -0.035538  -0.041743  -0.041419
     5  C    0.000145  -0.000097  -0.000083  -0.000713   0.000192   0.000196
     6  C    0.395259   0.389898   0.388378   0.003624  -0.002193  -0.001565
     7  C    0.003651  -0.000817  -0.001499   0.394985   0.390967   0.390008
     8  H    0.000000   0.000001  -0.000019   0.000000  -0.000020   0.000001
     9  H    0.003016   0.000118   0.000138   0.000037  -0.000101  -0.000108
    10  H   -0.000002  -0.000004   0.000018  -0.000077   0.000095  -0.000033
    11  H   -0.000008   0.000005  -0.000001   0.000052  -0.000008   0.000009
    12  H    0.000005   0.000006  -0.000004   0.000688  -0.000095   0.000056
    13  H    0.511813  -0.024307  -0.024855  -0.000092  -0.000036  -0.000055
    14  H   -0.024307   0.539538  -0.034696  -0.000040  -0.000400   0.002586
    15  H   -0.024855  -0.034696   0.545572  -0.000065   0.002695  -0.000378
    16  H   -0.000092  -0.000040  -0.000065   0.511925  -0.025955  -0.024775
    17  H   -0.000036  -0.000400   0.002695  -0.025955   0.538462  -0.033128
    18  H   -0.000055   0.002586  -0.000378  -0.024775  -0.033128   0.533839
 Mulliken atomic charges:
              1
     1  O   -0.319955
     2  O   -0.439802
     3  C   -0.181915
     4  C    0.059106
     5  C   -0.518118
     6  C   -0.509547
     7  C   -0.515372
     8  H    0.455570
     9  H    0.190401
    10  H    0.337036
    11  H    0.206165
    12  H    0.197625
    13  H    0.177005
    14  H    0.171115
    15  H    0.166632
    16  H    0.178778
    17  H    0.170532
    18  H    0.174743
 Sum of Mulliken atomic charges =   0.00000
 Mulliken charges with hydrogens summed into heavy atoms:
              1
     1  O    0.017081
     2  O    0.015768
     3  C    0.008486
     4  C    0.059106
     5  C   -0.114328
     6  C    0.005205
     7  C    0.008682
 Sum of Mulliken charges with hydrogens summed into heavy atoms =   0.00000
          Atomic-Atomic Spin Densities.
              1          2          3          4          5          6
     1  O    0.777612  -0.052931   0.006960   0.000623  -0.068378   0.000002
     2  O   -0.052931   0.028248  -0.002921  -0.000450   0.008015  -0.000003
     3  C    0.006960  -0.002921  -0.724451   0.029523  -0.038322  -0.000389
     4  C    0.000623  -0.000450   0.029523   0.846251  -0.012975  -0.024783
     5  C   -0.068378   0.008015  -0.038322  -0.012975   0.777554   0.000022
     6  C    0.000002  -0.000003  -0.000389  -0.024783   0.000022  -0.093019
     7  C   -0.000021   0.000009   0.000084  -0.027936   0.000324   0.002274
     8  H   -0.000027  -0.000555  -0.000678   0.000308  -0.000247  -0.000007
     9  H   -0.000060   0.000057   0.007560  -0.002123  -0.001577   0.000214
    10  H   -0.079420   0.019622   0.019008  -0.000176   0.071020   0.000019
    11  H    0.002925  -0.000407   0.004951  -0.000141  -0.023665   0.000009
    12  H    0.002031  -0.000155   0.003628  -0.000541  -0.020403   0.000007
    13  H    0.000000   0.000000   0.000953  -0.002225  -0.000003   0.003565
    14  H    0.000000   0.000000  -0.000173  -0.012927   0.000023   0.007963
    15  H   -0.000001   0.000004   0.000249  -0.013292   0.000022   0.006891
    16  H    0.000000   0.000001   0.000834  -0.002160  -0.000412  -0.000079
    17  H   -0.000010   0.000004   0.000081  -0.011862   0.000128   0.000381
    18  H    0.000001   0.000000  -0.000042  -0.012683   0.000118   0.000616
              7          8          9         10         11         12
     1  O   -0.000021  -0.000027  -0.000060  -0.079420   0.002925   0.002031
     2  O    0.000009  -0.000555   0.000057   0.019622  -0.000407  -0.000155
     3  C    0.000084  -0.000678   0.007560   0.019008   0.004951   0.003628
     4  C   -0.027936   0.000308  -0.002123  -0.000176  -0.000141  -0.000541
     5  C    0.000324  -0.000247  -0.001577   0.071020  -0.023665  -0.020403
     6  C    0.002274  -0.000007   0.000214   0.000019   0.000009   0.000007
     7  C   -0.087588  -0.000014   0.000039  -0.000065  -0.000019   0.000332
     8  H   -0.000014  -0.002068  -0.000010   0.000993  -0.000003  -0.000008
     9  H    0.000039  -0.000010   0.041225  -0.000156  -0.000159  -0.000036
    10  H   -0.000065   0.000993  -0.000156  -0.262524   0.009039   0.008464
    11  H   -0.000019  -0.000003  -0.000159   0.009039  -0.038531   0.002733
    12  H    0.000332  -0.000008  -0.000036   0.008464   0.002733  -0.037551
    13  H   -0.000062   0.000000  -0.000071   0.000000   0.000001   0.000000
    14  H    0.000468   0.000000  -0.000032   0.000001   0.000001   0.000001
    15  H    0.000596  -0.000008   0.000041  -0.000003  -0.000001  -0.000002
    16  H    0.003498   0.000000   0.000004   0.000023   0.000009   0.000079
    17  H    0.007726  -0.000011   0.000003  -0.000011  -0.000002  -0.000037
    18  H    0.007289   0.000000  -0.000010   0.000003   0.000004   0.000037
             13         14         15         16         17         18
     1  O    0.000000   0.000000  -0.000001   0.000000  -0.000010   0.000001
     2  O    0.000000   0.000000   0.000004   0.000001   0.000004   0.000000
     3  C    0.000953  -0.000173   0.000249   0.000834   0.000081  -0.000042
     4  C   -0.002225  -0.012927  -0.013292  -0.002160  -0.011862  -0.012683
     5  C   -0.000003   0.000023   0.000022  -0.000412   0.000128   0.000118
     6  C    0.003565   0.007963   0.006891  -0.000079   0.000381   0.000616
     7  C   -0.000062   0.000468   0.000596   0.003498   0.007726   0.007289
     8  H    0.000000   0.000000  -0.000008   0.000000  -0.000011   0.000000
     9  H   -0.000071  -0.000032   0.000041   0.000004   0.000003  -0.000010
    10  H    0.000000   0.000001  -0.000003   0.000023  -0.000011   0.000003
    11  H    0.000001   0.000001  -0.000001   0.000009  -0.000002   0.000004
    12  H    0.000000   0.000001  -0.000002   0.000079  -0.000037   0.000037
    13  H    0.003353  -0.000643  -0.000779   0.000000  -0.000003  -0.000001
    14  H   -0.000643   0.037444  -0.008202  -0.000001  -0.000649   0.001625
    15  H   -0.000779  -0.008202   0.039994   0.000000   0.001659  -0.000635
    16  H    0.000000  -0.000001   0.000000   0.003579  -0.000585  -0.000800
    17  H   -0.000003  -0.000649   0.001659  -0.000585   0.032911  -0.007156
    18  H   -0.000001   0.001625  -0.000635  -0.000800  -0.007156   0.036838
 Mulliken atomic spin densities:
              1
     1  O    0.589306
     2  O   -0.001462
     3  C   -0.693144
     4  C    0.752432
     5  C    0.691242
     6  C   -0.096319
     7  C   -0.093067
     8  H   -0.002335
     9  H    0.044911
    10  H   -0.214165
    11  H   -0.043256
    12  H   -0.041421
    13  H    0.004084
    14  H    0.024898
    15  H    0.026534
    16  H    0.003990
    17  H    0.022568
    18  H    0.025205
 Sum of Mulliken atomic spin densities =   1.00000
 APT atomic charges:
              1
     1  O    0.551334
     2  O   -0.325759
     3  C   -0.263313
     4  C    0.108002
     5  C    0.865081
     6  C    0.125505
     7  C    0.084280
     8  H    0.248916
     9  H   -0.005616
    10  H   -1.009377
    11  H   -0.091452
    12  H   -0.080984
    13  H   -0.026252
    14  H   -0.046536
    15  H   -0.047311
    16  H   -0.019495
    17  H   -0.031473
    18  H   -0.035551
 Sum of APT charges=   0.00000
 APT Atomic charges with hydrogens summed into heavy atoms:
              1
     1  O   -0.458043
     2  O   -0.076843
     3  C   -0.268928
     4  C    0.108002
     5  C    0.692645
     6  C    0.005405
     7  C   -0.002238
     8  H    0.000000
     9  H    0.000000
    10  H    0.000000
    11  H    0.000000
    12  H    0.000000
    13  H    0.000000
    14  H    0.000000
    15  H    0.000000
    16  H    0.000000
    17  H    0.000000
    18  H    0.000000
 Sum of APT charges=   0.00000
 Electronic spatial extent (au):  <R**2>=           1427.2914
 Charge=              0.0000 electrons
 Dipole moment (field-independent basis, Debye):
    X=              1.9232    Y=             -1.3476    Z=              2.0885  Tot=              3.1427
 Quadrupole moment (field-independent basis, Debye-Ang):
   XX=            -50.1122   YY=            -42.0331   ZZ=            -52.3742
   XY=              3.4116   XZ=             -6.8535   YZ=              4.3226
 Traceless Quadrupole moment (field-independent basis, Debye-Ang):
   XX=             -1.9390   YY=              6.1401   ZZ=             -4.2010
   XY=              3.4116   XZ=             -6.8535   YZ=              4.3226
 Octapole moment (field-independent basis, Debye-Ang**2):
  XXX=             39.1138  YYY=            -64.5011  ZZZ=            150.4612  XYY=              4.4991
  XXY=            -35.2945  XXZ=             55.9296  XZZ=             29.8788  YZZ=            -36.4504
  YYZ=             35.5244  XYZ=            -14.0421
 Hexadecapole moment (field-independent basis, Debye-Ang**3):
 XXXX=           -682.2456 YYYY=           -377.7898 ZZZZ=           -831.3353 XXXY=            143.5265
 XXXZ=           -214.5471 YYYX=            112.1424 YYYZ=            111.0571 ZZZX=           -242.1680
 ZZZY=            162.9806 XXYY=           -180.4149 XXZZ=           -268.0934 YYZZ=           -179.5960
 XXYZ=             70.8239 YYXZ=            -60.9441 ZZXY=             75.1761
 N-N= 3.026100314842D+02 E-N=-2.113336126386D+03  KE= 5.157687126463D+02
  Exact polarizability:  82.061  -5.658  65.588  22.169  -2.723  75.683
 Approx polarizability:  54.912  -4.461  54.711   4.608  -2.596  54.311
                          Isotropic Fermi Contact Couplings
        Atom                 a.u.       MegaHertz       Gauss      10(-4) cm-1
     1  O(17)              0.11862     -71.90692     -25.65818     -23.98557
     2  O(17)              0.02282     -13.83275      -4.93587      -4.61411
     3  C(13)             -0.12466    -140.13857     -50.00492     -46.74519
     4  C(13)              0.13405     150.70278      53.77450      50.26904
     5  C(13)              0.16795     188.81279      67.37310      62.98117
     6  C(13)             -0.03199     -35.96587     -12.83352     -11.99692
     7  C(13)             -0.03071     -34.52952     -12.32099     -11.51781
     8  H(1)              -0.00119      -5.32946      -1.90168      -1.77772
     9  H(1)               0.01391      62.19273      22.19191      20.74526
    10  H(1)              -0.08629    -385.70842    -137.63035    -128.65848
    11  H(1)              -0.01498     -66.97244     -23.89743     -22.33960
    12  H(1)              -0.01363     -60.91169     -21.73481     -20.31795
    13  H(1)               0.00139       6.20452       2.21393       2.06960
    14  H(1)               0.01112      49.72442      17.74291      16.58628
    15  H(1)               0.01174      52.46775      18.72180      17.50136
    16  H(1)               0.00135       6.02486       2.14982       2.00968
    17  H(1)               0.01013      45.30072      16.16442      15.11069
    18  H(1)               0.01125      50.29834      17.94770      16.77772
 --------------------------------------------------------
       Center         ----  Spin Dipole Couplings  ----
                      3XX-RR        3YY-RR        3ZZ-RR
 --------------------------------------------------------
     1   Atom        1.330980     -0.889045     -0.441935
     2   Atom        0.052243     -0.041582     -0.010661
     3   Atom       -0.027443     -0.017521      0.044964
     4   Atom        0.038578      0.032104     -0.070682
     5   Atom        0.208740     -0.143471     -0.065269
     6   Atom       -0.000648     -0.004151      0.004798
     7   Atom        0.003549      0.001542     -0.005091
     8   Atom       -0.008669      0.017749     -0.009079
     9   Atom        0.001462      0.019125     -0.020586
    10   Atom        0.086906     -0.069695     -0.017211
    11   Atom       -0.020860      0.025881     -0.005021
    12   Atom       -0.007685     -0.029797      0.037483
    13   Atom        0.004143     -0.003513     -0.000630
    14   Atom        0.005689     -0.000257     -0.005432
    15   Atom        0.000919      0.001858     -0.002776
    16   Atom       -0.000425     -0.003784      0.004209
    17   Atom       -0.000482     -0.002460      0.002942
    18   Atom       -0.003943     -0.002841      0.006784
 --------------------------------------------------------
                        XY            XZ            YZ
 --------------------------------------------------------
     1   Atom        0.886393      1.323559      0.519540
     2   Atom        0.186136      0.293563      0.034431
     3   Atom       -0.278056     -0.210648     -0.229876
     4   Atom        0.333475      0.278390      0.291201
     5   Atom        0.283620      0.349698      0.185961
     6   Atom        0.005808     -0.001563      0.000750
     7   Atom       -0.003421      0.003760      0.003381
     8   Atom       -0.009487      0.002611      0.004464
     9   Atom       -0.017500      0.019436     -0.009406
    10   Atom        0.116419      0.156334      0.081624
    11   Atom        0.023582      0.007884     -0.029553
    12   Atom        0.007821     -0.016288      0.013003
    13   Atom       -0.001285     -0.003902      0.003244
    14   Atom       -0.005601     -0.000661     -0.000449
    15   Atom       -0.007288     -0.001087      0.001927
    16   Atom        0.000234     -0.002709     -0.001017
    17   Atom        0.001394     -0.003452     -0.005781
    18   Atom       -0.000363     -0.003055     -0.002637
 --------------------------------------------------------


 ---------------------------------------------------------------------------------
              Anisotropic Spin Dipole Couplings in Principal Axis System
 ---------------------------------------------------------------------------------

       Atom             a.u.   MegaHertz   Gauss  10(-4) cm-1        Axes

              Baa    -1.2316    89.116    31.799    29.726 -0.0391  0.8636 -0.5027
     1 O(17)  Bbb    -1.1302    81.780    29.181    27.279 -0.5419  0.4044  0.7368
              Bcc     2.3618  -170.896   -60.980   -57.005  0.8396  0.3012  0.4521
 
              Baa    -0.3163    22.885     8.166     7.634  0.6862 -0.3878 -0.6154
     2 O(17)  Bbb    -0.0639     4.621     1.649     1.541 -0.0022  0.8449 -0.5349
              Bcc     0.3801   -27.505    -9.815    -9.175  0.7274  0.3684  0.5789
 
              Baa    -0.4840   -64.947   -23.175   -21.664  0.6068  0.6118  0.5075
     3 C(13)  Bbb     0.2223    29.833    10.645     9.951 -0.6089 -0.0527  0.7915
              Bcc     0.2617    35.114    12.530    11.713 -0.5109  0.7893 -0.3406
 
              Baa    -0.3150   -42.273   -15.084   -14.101  0.0307 -0.6595  0.7511
     4 C(13)  Bbb    -0.2929   -39.299   -14.023   -13.109  0.7944 -0.4399 -0.4188
              Bcc     0.6079    81.572    29.107    27.209  0.6066  0.6095  0.5104
 
              Baa    -0.3072   -41.229   -14.712   -13.753  0.6575 -0.4688 -0.5899
     5 C(13)  Bbb    -0.2944   -39.505   -14.096   -13.178 -0.0050  0.7802 -0.6256
              Bcc     0.6016    80.734    28.808    26.930  0.7535  0.4142  0.5106
 
              Baa    -0.0086    -1.160    -0.414    -0.387 -0.5984  0.7930 -0.1138
     6 C(13)  Bbb     0.0033     0.441     0.157     0.147  0.6918  0.5832  0.4259
              Bcc     0.0054     0.719     0.256     0.240 -0.4041 -0.1761  0.8976
 
              Baa    -0.0085    -1.136    -0.405    -0.379 -0.3767 -0.4096  0.8309
     7 C(13)  Bbb     0.0022     0.299     0.107     0.100  0.3866  0.7456  0.5428
              Bcc     0.0062     0.836     0.298     0.279  0.8418 -0.5257  0.1225
 
              Baa    -0.0146    -7.785    -2.778    -2.597  0.7445  0.3007 -0.5961
     8 H(1)   Bbb    -0.0066    -3.527    -1.258    -1.176  0.6006  0.0883  0.7946
              Bcc     0.0212    11.312     4.036     3.773 -0.2916  0.9496  0.1149
 
              Baa    -0.0319   -17.030    -6.077    -5.681 -0.5094 -0.0161  0.8604
     9 H(1)   Bbb    -0.0041    -2.213    -0.789    -0.738  0.6495  0.6487  0.3967
              Bcc     0.0361    19.243     6.866     6.419 -0.5645  0.7609 -0.3200
 
              Baa    -0.1322   -70.523   -25.164   -23.524 -0.6093  0.7296  0.3105
    10 H(1)   Bbb    -0.1286   -68.619   -24.485   -22.889 -0.2681 -0.5581  0.7853
              Bcc     0.2608   139.142    49.649    46.413  0.7462  0.3952  0.5357
 
              Baa    -0.0424   -22.600    -8.064    -7.538  0.7096 -0.4719 -0.5233
    11 H(1)   Bbb    -0.0055    -2.929    -1.045    -0.977  0.6608  0.1878  0.7267
              Bcc     0.0478    25.529     9.109     8.515  0.2446  0.8614 -0.4451
 
              Baa    -0.0366   -19.520    -6.965    -6.511 -0.3773  0.8944 -0.2400
    12 H(1)   Bbb    -0.0075    -4.026    -1.437    -1.343  0.8834  0.4254  0.1967
              Bcc     0.0441    23.546     8.402     7.854 -0.2780  0.1378  0.9506
 
              Baa    -0.0058    -3.075    -1.097    -1.026 -0.1342  0.7885 -0.6002
    13 H(1)   Bbb    -0.0013    -0.690    -0.246    -0.230  0.5669  0.5579  0.6061
              Bcc     0.0071     3.766     1.344     1.256  0.8128 -0.2590 -0.5219
 
              Baa    -0.0057    -3.038    -1.084    -1.013  0.1887  0.2723  0.9435
    14 H(1)   Bbb    -0.0034    -1.799    -0.642    -0.600  0.4787  0.8134 -0.3305
              Bcc     0.0091     4.836     1.726     1.613  0.8574 -0.5141 -0.0232
 
              Baa    -0.0060    -3.206    -1.144    -1.069  0.7000  0.6919 -0.1769
    15 H(1)   Bbb    -0.0031    -1.639    -0.585    -0.547  0.2513 -0.0068  0.9679
              Bcc     0.0091     4.845     1.729     1.616 -0.6684  0.7220  0.1786
 
              Baa    -0.0039    -2.089    -0.746    -0.697  0.0401  0.9897  0.1372
    16 H(1)   Bbb    -0.0017    -0.882    -0.315    -0.294  0.9099 -0.0929  0.4043
              Bcc     0.0056     2.971     1.060     0.991 -0.4129 -0.1086  0.9043
 
              Baa    -0.0062    -3.328    -1.187    -1.110  0.1422  0.8126  0.5652
    17 H(1)   Bbb    -0.0019    -1.034    -0.369    -0.345  0.9095 -0.3325  0.2494
              Bcc     0.0082     4.362     1.556     1.455 -0.3906 -0.4786  0.7864
 
              Baa    -0.0053    -2.820    -1.006    -0.941  0.8322  0.4590  0.3109
    18 H(1)   Bbb    -0.0029    -1.527    -0.545    -0.509 -0.5032  0.8608  0.0760
              Bcc     0.0081     4.347     1.551     1.450 -0.2328 -0.2197  0.9474
 

 ---------------------------------------------------------------------------------

 No NMR shielding tensors so no spin-rotation constants.
 Leave Link  601 at Thu Apr 26 14:07:35 2018, MaxMem=  671088640 cpu:      17.0
 (Enter /shared/apps/gaussian/G09_LINUX_LINDA/g09/l701.exe)
 Compute integral second derivatives.
 ... and contract with generalized density number  0.
 Leave Link  701 at Thu Apr 26 14:07:36 2018, MaxMem=  671088640 cpu:       7.5
 (Enter /shared/apps/gaussian/G09_LINUX_LINDA/g09/l702.exe)
 L702 exits ... SP integral derivatives will be done elsewhere.
 Leave Link  702 at Thu Apr 26 14:07:36 2018, MaxMem=  671088640 cpu:       0.3
 (Enter /shared/apps/gaussian/G09_LINUX_LINDA/g09/l703.exe)
 Compute integral second derivatives, UseDBF=F ICtDFT=           0.
 Integral derivatives from FoFDir, PRISM(SPDF).
 Calling FoFJK, ICntrl=    100127 FMM=F ISym2X=0 I1Cent= 0 IOpClX= 1 NMat=1 NMatS=1 NMatT=0.
 FoFCou: FMM=F IPFlag=           0 FMFlag=      100000 FMFlg1=         800
         NFxFlg=           0 DoJE=F BraDBF=F KetDBF=F FulRan=T
         Omega=  0.000000  0.000000  1.000000  0.000000  0.000000 ICntrl=  100127 IOpCl=  1
         NMat0=    1 NMatS0=    1 NMatT0=    0 NMatD0=    1 NMtDS0=    0 NMtDT0=    0
         I1Cent=           0 NGrid=           0.
 Symmetry not used in FoFCou.
 Leave Link  703 at Thu Apr 26 14:07:40 2018, MaxMem=  671088640 cpu:      35.4
 (Enter /shared/apps/gaussian/G09_LINUX_LINDA/g09/l716.exe)
 Dipole        = 7.56657204D-01-5.30182517D-01 8.21677334D-01
 Polarizability= 8.20614040D+01-5.65828934D+00 6.55880840D+01
                 2.21692780D+01-2.72321132D+00 7.56829184D+01
 HyperPolar    =-3.04196062D+02 1.28944155D+02-3.89204943D+01
                 1.38975726D+01-1.74804793D+02 6.32281786D+01
                -4.43077462D+01-5.22541960D+01 7.32174688D+01
                 1.02431852D+01
 -------------------------------------------------------------------
 Center     Atomic                   Forces (Hartrees/Bohr)
 Number     Number              X              Y              Z
 -------------------------------------------------------------------
      1        8          -0.000000004   -0.000000003    0.000000004
      2        8           0.000000010   -0.000000005    0.000000016
      3        6          -0.000000005   -0.000000003   -0.000000003
      4        6          -0.000000004    0.000000000   -0.000000007
      5        6           0.000000010    0.000000000    0.000000005
      6        6          -0.000000001   -0.000000001    0.000000000
      7        6          -0.000000007    0.000000003   -0.000000016
      8        1           0.000000004    0.000000001    0.000000005
      9        1           0.000000000   -0.000000001   -0.000000001
     10        1          -0.000000001    0.000000001    0.000000001
     11        1          -0.000000003    0.000000002    0.000000003
     12        1          -0.000000003    0.000000003   -0.000000006
     13        1          -0.000000001    0.000000000   -0.000000001
     14        1           0.000000001    0.000000001    0.000000000
     15        1           0.000000001    0.000000000    0.000000001
     16        1          -0.000000001    0.000000001   -0.000000003
     17        1           0.000000001    0.000000000    0.000000003
     18        1           0.000000001    0.000000001    0.000000000
 -------------------------------------------------------------------
 Cartesian Forces:  Max     0.000000016 RMS     0.000000005
 Z-matrix is all fixed cartesians, so copy forces.
 Leave Link  716 at Thu Apr 26 14:07:40 2018, MaxMem=  671088640 cpu:       0.5
 (Enter /shared/apps/gaussian/G09_LINUX_LINDA/g09/l123.exe)
 IRC-IRC-IRC-IRC-IRC-IRC-IRC-IRC-IRC-IRC-IRC-IRC-IRC-IRC-IRC-IRC-IRC-IRC
          ******** Start new reaction path calculation ********
 Current Structure is TS -> diagonalize the Hessian.
 Supplied step size of   0.1000 bohr.
    Integration on MW PES will use step size of   0.1041 sqrt(amu)*bohr.
 Point Number:   0          Path Number:   1
 Calculating another point on the path.
 Point Number  1 in FORWARD path direction.
 Using LQA Reaction Path Following.
 IRC-IRC-IRC-IRC-IRC-IRC-IRC-IRC-IRC-IRC-IRC-IRC-IRC-IRC-IRC-IRC-IRC-IRC
 Leave Link  123 at Thu Apr 26 14:07:41 2018, MaxMem=  671088640 cpu:       6.3
 (Enter /shared/apps/gaussian/G09_LINUX_LINDA/g09/l202.exe)
                          Input orientation:                          
 ---------------------------------------------------------------------
 Center     Atomic      Atomic             Coordinates (Angstroms)
 Number     Number       Type             X           Y           Z
 ---------------------------------------------------------------------
      1          8           0       -2.194180    0.595067   -1.161021
      2          8           0       -1.523472   -0.197925   -2.050910
      3          6           0        0.836707    0.611358    0.025247
      4          6           0        1.141521   -0.424449    0.856165
      5          6           0       -0.248146    1.567150    0.168785
      6          6           0        2.302126   -1.337484    0.550679
      7          6           0        0.395358   -0.749016    2.125133
      8          1           0       -1.494988   -1.044968   -1.622820
      9          1           0        1.434649    0.720614   -0.863698
     10          1           0       -1.319374    1.072639   -0.526786
     11          1           0       -0.107043    2.501372   -0.353364
     12          1           0       -0.673480    1.702916    1.150366
     13          1           0        2.804378   -1.061326   -0.368727
     14          1           0        3.034056   -1.314537    1.355000
     15          1           0        1.970718   -2.369498    0.457614
     16          1           0       -0.456180   -0.105924    2.298629
     17          1           0        0.034591   -1.774563    2.099031
     18          1           0        1.056241   -0.671330    2.985496
 ---------------------------------------------------------------------
                    Distance matrix (angstroms):
                    1          2          3          4          5
     1  O    0.000000
     2  O    1.367694   0.000000
     3  C    3.254807   3.245892   0.000000
     4  C    4.029311   3.950265   1.362436   0.000000
     5  C    2.549584   3.109501   1.452944   2.523912   0.000000
     6  C    5.184731   4.764668   2.494297   1.507965   3.884151
     7  C    4.394436   4.628709   2.540654   1.507443   3.099358
     8  H    1.841695   0.949502   3.300961   3.671729   3.404060
     9  H    3.643152   3.317178   1.076891   2.086868   2.148125
    10  H    1.181361   1.994729   2.272928   3.195282   1.369631
    11  H    2.939804   3.489146   2.146197   3.403278   1.079500
    12  H    2.980330   3.818881   2.176707   2.811844   1.078352
    13  H    5.325124   4.722869   2.612436   2.161264   4.063952
    14  H    6.108306   5.798113   3.210243   2.150065   4.525934
    15  H    5.362368   4.818484   3.218451   2.151656   4.528131
    16  H    3.934616   4.479516   2.711883   2.175962   2.716375
    17  H    4.605486   4.704823   3.261378   2.143087   3.869475
    18  H    5.418727   5.678418   3.233660   2.145292   3.827020
                    6          7          8          9         10
     6  C    0.000000
     7  C    2.541843   0.000000
     8  H    4.384944   4.208105   0.000000
     9  H    2.643623   3.488989   3.503757   0.000000
    10  H    4.481616   3.645738   2.390897   2.796797   0.000000
    11  H    4.621494   4.118298   4.014279   2.410053   1.881781
    12  H    4.296265   2.846850   3.989524   3.076618   1.904539
    13  H    1.083433   3.481415   4.478567   2.301404   4.645871
    14  H    1.087742   2.806358   5.427000   3.409188   5.309622
    15  H    1.087908   2.808618   4.253669   3.403237   4.862309
    16  H    3.490031   1.081103   4.163975   3.776070   3.180736
    17  H    2.780314   1.087466   4.089510   4.118717   4.103010
    18  H    2.815018   1.087671   5.280621   4.110595   4.584878
                   11         12         13         14         15
    11  H    0.000000
    12  H    1.794321   0.000000
    13  H    4.601025   4.695122   0.000000
    14  H    5.229357   4.784634   1.757300   0.000000
    15  H    5.357252   4.904716   1.757596   1.746120   0.000000
    16  H    3.735366   2.153515   4.319585   3.812207   3.795119
    17  H    4.931321   3.673444   3.777599   3.124420   2.607064
    18  H    4.750501   3.463623   3.802485   2.642723   3.179659
                   16         17         18
    16  H    0.000000
    17  H    1.750728   0.000000
    18  H    1.754676   1.745484   0.000000
 Symmetry turned off by external request.
 Stoichiometry    C5H11O2(2)
 Framework group  C1[X(C5H11O2)]
 Deg. of freedom    48
 Full point group                 C1      NOp   1
 Rotational constants (GHZ):      3.6010894      1.1896432      1.1106818
 Leave Link  202 at Thu Apr 26 14:07:41 2018, MaxMem=  671088640 cpu:       0.9
 (Enter /shared/apps/gaussian/G09_LINUX_LINDA/g09/l301.exe)
 Standard basis: 6-31G(d) (6D, 7F)
 Ernie: Thresh=  0.10000D-02 Tol=  0.10000D-05 Strict=F.
 Integral buffers will be    131072 words long.
 Raffenetti 2 integral format.
 Two-electron integral symmetry is turned off.
   127 basis functions,   240 primitive gaussians,   127 cartesian basis functions
    29 alpha electrons       28 beta electrons
       nuclear repulsion energy       302.6449838413 Hartrees.
 IExCor=    0 DFT=F Ex=HF Corr=None ExCW=0 ScaHFX=  1.000000
 ScaDFX=  1.000000  1.000000  1.000000  1.000000 ScalE2=  1.000000  1.000000
 IRadAn=      0 IRanWt=     -1 IRanGd=            0 ICorTp=0
 NAtoms=   18 NActive=   18 NUniq=   18 SFac= 1.00D+00 NAtFMM=   50 NAOKFM=F Big=F
 Leave Link  301 at Thu Apr 26 14:07:41 2018, MaxMem=  671088640 cpu:       1.0
 (Enter /shared/apps/gaussian/G09_LINUX_LINDA/g09/l302.exe)
 NPDir=0 NMtPBC=     1 NCelOv=     1 NCel=       1 NClECP=     1 NCelD=      1
         NCelK=      1 NCelE2=     1 NClLst=     1 CellRange=     0.0.
 One-electron integrals computed using PRISM.
 NBasis=   127 RedAO= T  NBF=   127
 NBsUse=   127 1.00D-06 NBFU=   127
 Leave Link  302 at Thu Apr 26 14:07:42 2018, MaxMem=  671088640 cpu:       6.9
 (Enter /shared/apps/gaussian/G09_LINUX_LINDA/g09/l303.exe)
 DipDrv:  MaxL=1.
 Leave Link  303 at Thu Apr 26 14:07:42 2018, MaxMem=  671088640 cpu:       1.5
 (Enter /shared/apps/gaussian/G09_LINUX_LINDA/g09/l401.exe)
 Initial guess read from the read-write file.
 B after Tr=     0.000000    0.000000    0.000000
         Rot=    1.000000    0.000000    0.000000    0.000000 Ang=   0.00 deg.
 Guess basis will be translated and rotated to current coordinates.
 Initial guess <Sx>= 0.0000 <Sy>= 0.0000 <Sz>= 0.5000 <S**2>= 1.0009 S= 0.6185
 Generating alternative initial guess.
 Harris functional with IExCor=  205 diagonalized for initial guess.
 ExpMin= 1.61D-01 ExpMax= 5.48D+03 ExpMxC= 8.25D+02 IAcc=1 IRadAn=         1 AccDes= 0.00D+00
 HarFok:  IExCor=  205 AccDes= 0.00D+00 IRadAn=         1 IDoV= 1
 ScaDFX=  1.000000  1.000000  1.000000  1.000000
 FoFCou: FMM=F IPFlag=           0 FMFlag=      100000 FMFlg1=           0
         NFxFlg=           0 DoJE=T BraDBF=F KetDBF=T FulRan=T
         Omega=  0.000000  0.000000  1.000000  0.000000  0.000000 ICntrl=     500 IOpCl=  0
         NMat0=    1 NMatS0=    1 NMatT0=    0 NMatD0=    1 NMtDS0=    0 NMtDT0=    0
         I1Cent=           4 NGrid=           0.
 Symmetry not used in FoFCou.
 Harris En= -345.811762489591    
 Leave Link  401 at Thu Apr 26 14:07:46 2018, MaxMem=  671088640 cpu:      37.7
 (Enter /shared/apps/gaussian/G09_LINUX_LINDA/g09/l502.exe)
 UHF open shell SCF:
 Requested convergence on RMS density matrix=1.00D-08 within 128 cycles.
 Requested convergence on MAX density matrix=1.00D-06.
 Requested convergence on             energy=1.00D-06.
 No special actions if energy rises.
 Using DIIS extrapolation, IDIIS=  1040.
 Two-electron integral symmetry not used.
 Keep R1 and R2 ints in memory in canonical form, NReq=67190916.
 IEnd=       69871 IEndB=       69871 NGot=   671088640 MDV=   604979126
 LenX=   604979126 LenY=   604962556
 Symmetry not used in FoFDir.
 MinBra= 0 MaxBra= 2 Meth= 1.
 IRaf=       0 NMat=   1 IRICut=       1 DoRegI=T DoRafI=F ISym2E= 0 JSym2E=0.

 Cycle   1  Pass 1  IDiag  1:
 E= -345.257280316912    
 DIIS: error= 2.78D-03 at cycle   1 NSaved=   1.
 NSaved= 1 IEnMin= 1 EnMin= -345.257280316912     IErMin= 1 ErrMin= 2.78D-03
 ErrMax= 2.78D-03 EMaxC= 1.00D-01 BMatC= 3.35D-03 BMatP= 3.35D-03
 IDIUse=3 WtCom= 9.72D-01 WtEn= 2.78D-02
 Coeff-Com:  0.100D+01
 Coeff-En:   0.100D+01
 Coeff:      0.100D+01
 Gap=     0.524 Goal=   None    Shift=    0.000
 Gap=     0.435 Goal=   None    Shift=    0.000
 GapD=    0.435 DampG=2.000 DampE=1.000 DampFc=2.0000 IDamp=-1.
 RMSDP=3.27D-04 MaxDP=9.21D-03              OVMax= 2.20D-02

 Cycle   2  Pass 1  IDiag  1:
 E= -345.259208686675     Delta-E=       -0.001928369764 Rises=F Damp=F
 DIIS: error= 1.25D-03 at cycle   2 NSaved=   2.
 NSaved= 2 IEnMin= 2 EnMin= -345.259208686675     IErMin= 2 ErrMin= 1.25D-03
 ErrMax= 1.25D-03 EMaxC= 1.00D-01 BMatC= 1.04D-03 BMatP= 3.35D-03
 IDIUse=3 WtCom= 9.88D-01 WtEn= 1.25D-02
 Coeff-Com:  0.435D-01 0.957D+00
 Coeff-En:   0.000D+00 0.100D+01
 Coeff:      0.430D-01 0.957D+00
 Gap=     0.523 Goal=   None    Shift=    0.000
 Gap=     0.432 Goal=   None    Shift=    0.000
 RMSDP=1.87D-04 MaxDP=5.04D-03 DE=-1.93D-03 OVMax= 1.36D-02

 Cycle   3  Pass 1  IDiag  1:
 E= -345.259914288262     Delta-E=       -0.000705601587 Rises=F Damp=F
 DIIS: error= 1.39D-03 at cycle   3 NSaved=   3.
 NSaved= 3 IEnMin= 3 EnMin= -345.259914288262     IErMin= 2 ErrMin= 1.25D-03
 ErrMax= 1.39D-03 EMaxC= 1.00D-01 BMatC= 3.93D-04 BMatP= 1.04D-03
 IDIUse=3 WtCom= 9.86D-01 WtEn= 1.39D-02
 Coeff-Com: -0.174D+00 0.478D-01 0.113D+01
 Coeff-En:   0.000D+00 0.000D+00 0.100D+01
 Coeff:     -0.171D+00 0.471D-01 0.112D+01
[...]
     1  O   -0.103275
     2  O    0.079942
     3  C   -0.047530
     4  C    0.053016
     5  C    0.036032
     6  C   -0.012171
     7  C   -0.006013
 Sum of Mulliken charges with hydrogens summed into heavy atoms =   0.00000
          Atomic-Atomic Spin Densities.
              1          2          3          4          5          6
     1  O    1.066263  -0.105532   0.001514   0.000315  -0.017783   0.000001
     2  O   -0.105532   0.170128  -0.001029  -0.000214   0.004389  -0.000001
     3  C    0.001514  -0.001029  -0.271156   0.005483   0.004361   0.000058
     4  C    0.000315  -0.000214   0.005483   0.274571  -0.002041  -0.007286
     5  C   -0.017783   0.004389   0.004361  -0.002041   0.137679   0.000005
     6  C    0.000001  -0.000001   0.000058  -0.007286   0.000005  -0.029851
     7  C   -0.000012   0.000004   0.000309  -0.007917   0.000069   0.000648
     8  H    0.001018  -0.002426  -0.000360   0.000137   0.000052  -0.000004
     9  H   -0.000056   0.000053   0.002119  -0.000425  -0.000508  -0.000006
    10  H   -0.035803   0.004374   0.009137   0.000123   0.010085   0.000010
    11  H    0.000926  -0.000182   0.001686  -0.000039  -0.005917   0.000002
    12  H    0.000493  -0.000078   0.001104  -0.000200  -0.004707   0.000002
    13  H    0.000000   0.000000   0.000328  -0.000765  -0.000001   0.001155
    14  H    0.000000   0.000000   0.000027  -0.004284   0.000005   0.002393
    15  H    0.000000   0.000002   0.000133  -0.004252   0.000001   0.002095
    16  H    0.000006   0.000000   0.000281  -0.000732  -0.000119  -0.000024
    17  H   -0.000004   0.000002   0.000075  -0.004021   0.000013   0.000142
    18  H    0.000000   0.000000  -0.000016  -0.004238   0.000031   0.000192
              7          8          9         10         11         12
     1  O   -0.000012   0.001018  -0.000056  -0.035803   0.000926   0.000493
     2  O    0.000004  -0.002426   0.000053   0.004374  -0.000182  -0.000078
     3  C    0.000309  -0.000360   0.002119   0.009137   0.001686   0.001104
     4  C   -0.007917   0.000137  -0.000425   0.000123  -0.000039  -0.000200
     5  C    0.000069   0.000052  -0.000508   0.010085  -0.005917  -0.004707
     6  C    0.000648  -0.000004  -0.000006   0.000010   0.000002   0.000002
     7  C   -0.029053  -0.000005   0.000021  -0.000042  -0.000006   0.000084
     8  H   -0.000005  -0.007480  -0.000006   0.000227  -0.000001  -0.000005
     9  H    0.000021  -0.000006   0.016055  -0.000070  -0.000133   0.000004
    10  H   -0.000042   0.000227  -0.000070  -0.066156   0.003968   0.004001
    11  H   -0.000006  -0.000001  -0.000133   0.003968  -0.008780   0.000197
    12  H    0.000084  -0.000005   0.000004   0.004001   0.000197  -0.009032
    13  H   -0.000021   0.000000  -0.000030   0.000000   0.000000   0.000000
    14  H    0.000144   0.000000  -0.000010   0.000001   0.000000   0.000000
    15  H    0.000167  -0.000003   0.000018  -0.000003   0.000000   0.000000
    16  H    0.001132   0.000000   0.000001   0.000015   0.000002   0.000023
    17  H    0.002331  -0.000005   0.000001  -0.000012  -0.000001  -0.000003
    18  H    0.002141   0.000000  -0.000004   0.000006   0.000001  -0.000002
             13         14         15         16         17         18
     1  O    0.000000   0.000000   0.000000   0.000006  -0.000004   0.000000
     2  O    0.000000   0.000000   0.000002   0.000000   0.000002   0.000000
     3  C    0.000328   0.000027   0.000133   0.000281   0.000075  -0.000016
     4  C   -0.000765  -0.004284  -0.004252  -0.000732  -0.004021  -0.004238
     5  C   -0.000001   0.000005   0.000001  -0.000119   0.000013   0.000031
     6  C    0.001155   0.002393   0.002095  -0.000024   0.000142   0.000192
     7  C   -0.000021   0.000144   0.000167   0.001132   0.002331   0.002141
     8  H    0.000000   0.000000  -0.000003   0.000000  -0.000005   0.000000
     9  H   -0.000030  -0.000010   0.000018   0.000001   0.000001  -0.000004
    10  H    0.000000   0.000001  -0.000003   0.000015  -0.000012   0.000006
    11  H    0.000000   0.000000   0.000000   0.000002  -0.000001   0.000001
    12  H    0.000000   0.000000   0.000000   0.000023  -0.000003  -0.000002
    13  H    0.001106  -0.000218  -0.000244   0.000000  -0.000001   0.000000
    14  H   -0.000218   0.012135  -0.002622   0.000000  -0.000226   0.000563
    15  H   -0.000244  -0.002622   0.012390  -0.000001   0.000565  -0.000217
    16  H    0.000000   0.000000  -0.000001   0.001166  -0.000223  -0.000229
    17  H   -0.000001  -0.000226   0.000565  -0.000223   0.011227  -0.002512
    18  H    0.000000   0.000563  -0.000217  -0.000229  -0.002512   0.012499
 Mulliken atomic spin densities:
              1
     1  O    0.911347
     2  O    0.069490
     3  C   -0.245943
     4  C    0.244214
     5  C    0.125614
     6  C   -0.030467
     7  C   -0.030002
     8  H   -0.008861
     9  H    0.017025
    10  H   -0.070139
    11  H   -0.008276
    12  H   -0.008116
    13  H    0.001309
    14  H    0.007910
    15  H    0.008030
    16  H    0.001299
    17  H    0.007350
    18  H    0.008216
 Sum of Mulliken atomic spin densities =   1.00000
 APT atomic charges:
              1
     1  O    0.073787
     2  O   -0.368541
     3  C   -0.057615
     4  C    0.046903
     5  C    0.135378
     6  C    0.136003
     7  C    0.109309
     8  H    0.312090
     9  H   -0.011621
    10  H   -0.037979
    11  H   -0.046269
    12  H   -0.045355
    13  H   -0.031398
    14  H   -0.050996
    15  H   -0.056583
    16  H   -0.022275
    17  H   -0.043465
    18  H   -0.041372
 Sum of APT charges=   0.00000
 APT Atomic charges with hydrogens summed into heavy atoms:
              1
     1  O    0.073787
     2  O   -0.056450
     3  C   -0.069237
     4  C    0.046903
     5  C    0.005775
     6  C   -0.002974
     7  C    0.002196
     8  H    0.000000
     9  H    0.000000
    10  H    0.000000
    11  H    0.000000
    12  H    0.000000
    13  H    0.000000
    14  H    0.000000
    15  H    0.000000
    16  H    0.000000
    17  H    0.000000
    18  H    0.000000
 Sum of APT charges=   0.00000
 Electronic spatial extent (au):  <R**2>=           1157.0737
 Charge=              0.0000 electrons
 Dipole moment (field-independent basis, Debye):
    X=              0.1567    Y=             -1.8774    Z=              0.5924  Tot=              1.9748
 Quadrupole moment (field-independent basis, Debye-Ang):
   XX=            -45.7543   YY=            -42.3984   ZZ=            -46.3823
   XY=              2.2418   XZ=             -1.5955   YZ=              1.8920
 Traceless Quadrupole moment (field-independent basis, Debye-Ang):
   XX=             -0.9093   YY=              2.4466   ZZ=             -1.5373
   XY=              2.2418   XZ=             -1.5955   YZ=              1.8920
 Octapole moment (field-independent basis, Debye-Ang**2):
  XXX=            -24.2374  YYY=             -0.0428  ZZZ=            -14.5049  XYY=            -12.7065
  XXY=             -4.7463  XXZ=             -6.6433  XZZ=             -3.3141  YZZ=             -2.8773
  YYZ=            -12.2073  XYZ=             -6.2507
 Hexadecapole moment (field-independent basis, Debye-Ang**3):
 XXXX=           -638.8000 YYYY=           -327.7946 ZZZZ=           -530.1907 XXXY=            110.5202
 XXXZ=           -157.3112 YYYX=            110.1535 YYYZ=             59.4412 ZZZX=           -163.5515
 ZZZY=             64.4445 XXYY=           -162.2048 XXZZ=           -191.2670 YYZZ=           -136.2109
 XXYZ=             24.3731 YYXZ=            -49.1555 ZZXY=             38.2318
 N-N= 3.025375838660D+02 E-N=-2.112785192594D+03  KE= 5.157985461555D+02
  Exact polarizability:  56.184 -10.402  65.424   2.150  -8.548  61.041
 Approx polarizability:  46.931  -5.968  55.323  -0.452  -5.758  52.282
                          Isotropic Fermi Contact Couplings
        Atom                 a.u.       MegaHertz       Gauss      10(-4) cm-1
     1  O(17)              0.17899    -108.50029     -38.71560     -36.19180
     2  O(17)              0.06462     -39.17106     -13.97721     -13.06606
     3  C(13)             -0.04259     -47.88350     -17.08602     -15.97222
     4  C(13)              0.04326      48.62958      17.35224      16.22108
     5  C(13)              0.04526      50.87851      18.15472      16.97125
     6  C(13)             -0.01023     -11.50346      -4.10472      -3.83714
     7  C(13)             -0.01005     -11.29802      -4.03141      -3.76861
     8  H(1)              -0.00473     -21.13677      -7.54213      -7.05047
     9  H(1)               0.00518      23.15661       8.26285       7.72421
    10  H(1)              -0.01500     -67.02897     -23.91760     -22.35846
    11  H(1)              -0.00330     -14.75730      -5.26577      -4.92251
    12  H(1)              -0.00300     -13.41235      -4.78586      -4.47388
    13  H(1)               0.00045       2.03014       0.72440       0.67718
    14  H(1)               0.00348      15.54190       5.54574       5.18422
    15  H(1)               0.00350      15.66337       5.58908       5.22474
    16  H(1)               0.00045       1.99851       0.71312       0.66663
    17  H(1)               0.00325      14.52433       5.18264       4.84479
    18  H(1)               0.00361      16.13557       5.75757       5.38225
 --------------------------------------------------------
       Center         ----  Spin Dipole Couplings  ----
                      3XX-RR        3YY-RR        3ZZ-RR
 --------------------------------------------------------
     1   Atom        2.024028     -1.337555     -0.686473
     2   Atom        0.407364     -0.226484     -0.180880
     3   Atom       -0.013298     -0.004794      0.018091
     4   Atom        0.016206      0.005323     -0.021529
     5   Atom        0.049996     -0.034939     -0.015057
     6   Atom        0.000801     -0.002239      0.001439
     7   Atom        0.001610     -0.000562     -0.001047
     8   Atom       -0.018417      0.040481     -0.022064
     9   Atom        0.004336      0.005624     -0.009960
    10   Atom        0.031528     -0.026283     -0.005246
    11   Atom       -0.000751      0.005071     -0.004320
    12   Atom       -0.003598     -0.006432      0.010030
    13   Atom        0.002336     -0.001802     -0.000534
    14   Atom        0.002267     -0.000464     -0.001803
    15   Atom        0.000984      0.000112     -0.001096
    16   Atom       -0.000465     -0.002716      0.003181
    17   Atom       -0.000264     -0.001403      0.001667
    18   Atom       -0.001019     -0.001416      0.002435
 --------------------------------------------------------
                        XY            XZ            YZ
 --------------------------------------------------------
     1   Atom        1.306723      1.984511      0.711733
     2   Atom        0.331871      0.528951      0.087931
     3   Atom       -0.102481     -0.078220     -0.084655
     4   Atom        0.104965      0.090837      0.092765
     5   Atom        0.045109      0.067118      0.028012
     6   Atom        0.001472      0.000006     -0.000140
     7   Atom       -0.001861      0.002837      0.000880
     8   Atom       -0.017613      0.003652     -0.008462
     9   Atom       -0.005386      0.008943     -0.003227
    10   Atom        0.054854      0.069835      0.042060
    11   Atom        0.011028      0.002857     -0.001786
    12   Atom        0.003101      0.003684      0.005389
    13   Atom       -0.000544     -0.000685      0.000772
    14   Atom       -0.001855      0.000122     -0.000161
    15   Atom       -0.003053      0.000231      0.000271
    16   Atom       -0.000426      0.001346     -0.000333
    17   Atom       -0.000384      0.000088     -0.002671
    18   Atom       -0.000272     -0.000208     -0.000828
 --------------------------------------------------------


 ---------------------------------------------------------------------------------
              Anisotropic Spin Dipole Couplings in Principal Axis System
 ---------------------------------------------------------------------------------

       Atom             a.u.   MegaHertz   Gauss  10(-4) cm-1        Axes

              Baa    -1.7979   130.098    46.422    43.396 -0.1185  0.9187 -0.3767
     1 O(17)  Bbb    -1.7290   125.111    44.643    41.733 -0.5213  0.2654  0.8111
              Bcc     3.5270  -255.210   -91.065   -85.129  0.8451  0.2925  0.4475
 
              Baa    -0.5313    38.445    13.718    12.824 -0.5528  0.3893  0.7368
     2 O(17)  Bbb    -0.2919    21.125     7.538     7.047 -0.0415  0.8702 -0.4910
              Bcc     0.8233   -59.570   -21.256   -19.871  0.8323  0.3021  0.4649
 
              Baa    -0.1789   -24.004    -8.565    -8.007  0.6140  0.6069  0.5047
     3 C(13)  Bbb     0.0822    11.026     3.934     3.678 -0.6480  0.0226  0.7613
              Bcc     0.0967    12.978     4.631     4.329 -0.4506  0.7945 -0.4071
 
              Baa    -0.1018   -13.665    -4.876    -4.558  0.0015 -0.6553  0.7554
     4 C(13)  Bbb    -0.0922   -12.368    -4.413    -4.126  0.7882 -0.4641 -0.4041
              Bcc     0.1940    26.033     9.289     8.684  0.6154  0.5960  0.5159
 
              Baa    -0.0571    -7.666    -2.735    -2.557 -0.5494  0.0654  0.8330
     5 C(13)  Bbb    -0.0542    -7.273    -2.595    -2.426 -0.2516  0.9377 -0.2396
              Bcc     0.1113    14.939     5.331     4.983  0.7968  0.3412  0.4987
 
              Baa    -0.0028    -0.381    -0.136    -0.127 -0.3747  0.9266  0.0307
     6 C(13)  Bbb     0.0014     0.183     0.065     0.061  0.7923  0.3028  0.5296
              Bcc     0.0015     0.198     0.070     0.066 -0.4815 -0.2228  0.8477
 
              Baa    -0.0038    -0.514    -0.183    -0.171 -0.5290 -0.4883  0.6940
     7 C(13)  Bbb     0.0001     0.014     0.005     0.005 -0.0306  0.8283  0.5594
              Bcc     0.0037     0.500     0.179     0.167  0.8480 -0.2747  0.4531
 
              Baa    -0.0245   -13.091    -4.671    -4.367  0.7064  0.1002 -0.7006
     8 H(1)   Bbb    -0.0220   -11.751    -4.193    -3.920  0.6558  0.2797  0.7012
              Bcc     0.0466    24.843     8.864     8.287 -0.2662  0.9548 -0.1319
 
              Baa    -0.0143    -7.619    -2.718    -2.541 -0.4254  0.0315  0.9045
     9 H(1)   Bbb     0.0007     0.380     0.136     0.127  0.5710  0.7847  0.2412
              Bcc     0.0136     7.239     2.583     2.415  0.7021 -0.6191  0.3518
 
              Baa    -0.0594   -31.687   -11.307   -10.570 -0.5787  0.8067  0.1197
    10 H(1)   Bbb    -0.0590   -31.477   -11.232   -10.500 -0.3925 -0.4042  0.8262
              Bcc     0.1184    63.164    22.539    21.069  0.7149  0.4311  0.5505
 
              Baa    -0.0109    -5.840    -2.084    -1.948  0.7104 -0.5396 -0.4519
    11 H(1)   Bbb    -0.0026    -1.402    -0.500    -0.468  0.3470 -0.2901  0.8919
              Bcc     0.0136     7.242     2.584     2.416  0.6123  0.7904  0.0189
 
              Baa    -0.0089    -4.742    -1.692    -1.582 -0.4028  0.8979 -0.1773
    12 H(1)   Bbb    -0.0039    -2.107    -0.752    -0.703  0.8769  0.3232 -0.3557
              Bcc     0.0128     6.849     2.444     2.285  0.2621  0.2988  0.9176
 
              Baa    -0.0022    -1.161    -0.414    -0.387  0.0478  0.9116 -0.4084
    13 H(1)   Bbb    -0.0004    -0.229    -0.082    -0.076  0.2920  0.3783  0.8784
              Bcc     0.0026     1.390     0.496     0.464  0.9552 -0.1612 -0.2481
 
              Baa    -0.0018    -0.975    -0.348    -0.325  0.0599  0.1969  0.9786
    14 H(1)   Bbb    -0.0014    -0.738    -0.263    -0.246  0.4489  0.8703 -0.2026
              Bcc     0.0032     1.714     0.611     0.572  0.8916 -0.4515  0.0362
 
              Baa    -0.0026    -1.398    -0.499    -0.466  0.6379  0.7357 -0.2277
    15 H(1)   Bbb    -0.0010    -0.540    -0.193    -0.180  0.1497  0.1715  0.9737
              Bcc     0.0036     1.938     0.691     0.646  0.7554 -0.6553 -0.0008
 
              Baa    -0.0028    -1.491    -0.532    -0.497  0.1706  0.9852  0.0165
    16 H(1)   Bbb    -0.0009    -0.459    -0.164    -0.153  0.9332 -0.1562 -0.3237
              Bcc     0.0037     1.950     0.696     0.651  0.3163 -0.0707  0.9460
 
              Baa    -0.0030    -1.590    -0.567    -0.530  0.1061  0.8630  0.4940
    17 H(1)   Bbb    -0.0003    -0.136    -0.048    -0.045  0.9914 -0.0534 -0.1195
              Bcc     0.0032     1.725     0.616     0.575  0.0767 -0.5024  0.8612
 
              Baa    -0.0017    -0.919    -0.328    -0.307  0.4034  0.8933  0.1982
    18 H(1)   Bbb    -0.0009    -0.474    -0.169    -0.158  0.9141 -0.4031 -0.0432
              Bcc     0.0026     1.393     0.497     0.465 -0.0413 -0.1986  0.9792
 

 ---------------------------------------------------------------------------------

 No NMR shielding tensors so no spin-rotation constants.
 Leave Link  601 at Thu Apr 26 14:36:38 2018, MaxMem=  671088640 cpu:      25.5
 (Enter /shared/apps/gaussian/G09_LINUX_LINDA/g09/l716.exe)
 Dipole        = 6.16670144D-02-7.38606471D-01 2.33061532D-01
 Polarizability= 5.61837899D+01-1.04022827D+01 6.54243922D+01
                 2.15003314D+00-8.54836141D+00 6.10406569D+01
 HyperPolar    =-7.65084571D+01-2.58115335D+01-1.57849242D+01
                -2.75381244D+01-6.31225854D+01-3.37438074D+01
                -9.16517364D+00-2.21173806D+01 6.61280150D+00
                -9.76488131D+00
 -------------------------------------------------------------------
 Center     Atomic                   Forces (Hartrees/Bohr)
 Number     Number              X              Y              Z
 -------------------------------------------------------------------
      1        8          -0.026267166   -0.019429223   -0.024545889
      2        8          -0.004176577    0.000805721    0.000757839
      3        6           0.003749783   -0.003444096    0.002060486
      4        6           0.001767473   -0.000890831    0.000217433
      5        6           0.014252796    0.015642563    0.015139400
      6        6           0.000079053   -0.000796914    0.000142830
      7        6           0.000872214    0.000746163   -0.001258191
      8        1           0.001474824    0.000331116    0.000333481
      9        1           0.000650022   -0.000390972    0.000391805
     10        1          -0.001043438    0.004605350    0.002280179
     11        1           0.004095751    0.001165957    0.002571006
     12        1           0.004303014    0.001757589    0.002135302
     13        1           0.000068827   -0.000139477    0.000029210
     14        1          -0.000048281   -0.000024318    0.000056930
     15        1          -0.000033597   -0.000055296    0.000089569
     16        1           0.000084159    0.000069647   -0.000113434
     17        1           0.000080676    0.000066091   -0.000174490
     18        1           0.000090467   -0.000019070   -0.000113467
 -------------------------------------------------------------------
 Cartesian Forces:  Max     0.026267166 RMS     0.006783719
 Z-matrix is all fixed cartesians, so copy forces.
 Leave Link  716 at Thu Apr 26 14:36:38 2018, MaxMem=  671088640 cpu:       0.4
 (Enter /shared/apps/gaussian/G09_LINUX_LINDA/g09/l9999.exe)

 This type of calculation cannot be archived.


 TERENCE, THIS IS STUPID STUFF:
 YOU EAT YOUR VICTUALS FAST ENOUGH;
 THERE CAN'T BE MUCH AMISS, 'TIS CLEAR
 TO SEE THE RATE YOU DRINK YOUR BEER.
 BUT OH, GOOD LORD, THE VERSE YOU MAKE,
 IT GIVES A CHAP THE BELLY-ACHE.
 THE COW, THE OLD COW, SHE IS DEAD;
 IT SLEEPS WELL, THE HORNED HEAD:
 WE POOR LADS, 'TIS OUR TURN NOW
 TO HEAR SUCH TUNES AS KILLED THE COW.
 PRETTY FRIENDSHIP 'TIS TO RHYME
 YOUR FRIENDS TO DEATH BEFORE THEIR TIME.
 MOPING, MELANCHOLY MAD:
 COME PIPE A TUNE TO DANCE TO, LAD.

     -- A. E. HOUSMAN
 Job cpu time:  0 days  4 hours 58 minutes  4.4 seconds.
 File lengths (MBytes):  RWF=    134 Int=      0 D2E=      0 Chk=      5 Scr=      1
 Normal termination of Gaussian 09 at Thu Apr 26 14:36:39 2018.
