 Entering Gaussian System, Link 0=g09
 Initial command:
 /shared/apps/gaussian/G09_LINUX_LINDA/g09/l1.exe /home/harms.n/Code/AutoTST/ipython_notebooks/Gau-18432.inp -scrdir=/home/harms.n/Code/AutoTST/ipython_notebooks/
 Entering Link 1 = /shared/apps/gaussian/G09_LINUX_LINDA/g09/l1.exe PID=     18433.
  
 Copyright (c) 1988,1990,1992,1993,1995,1998,2003,2009,2010,
            Gaussian, Inc.  All Rights Reserved.
  
 This is part of the Gaussian(R) 09 program.  It is based on
 the Gaussian(R) 03 system (copyright 2003, Gaussian, Inc.),
 the Gaussian(R) 98 system (copyright 1998, Gaussian, Inc.),
 the Gaussian(R) 94 system (copyright 1995, Gaussian, Inc.),
 the Gaussian 92(TM) system (copyright 1992, Gaussian, Inc.),
 the Gaussian 90(TM) system (copyright 1990, Gaussian, Inc.),
 the Gaussian 88(TM) system (copyright 1988, Gaussian, Inc.),
 the Gaussian 86(TM) system (copyright 1986, Carnegie Mellon
 University), and the Gaussian 82(TM) system (copyright 1983,
 Carnegie Mellon University). Gaussian is a federally registered
 trademark of Gaussian, Inc.
  
 This software contains proprietary and confidential information,
 including trade secrets, belonging to Gaussian, Inc.
  
 This software is provided under written license and may be
 used, copied, transmitted, or stored only in accord with that
 written license.
  
 The following legend is applicable only to US Government
 contracts under FAR:
  
                    RESTRICTED RIGHTS LEGEND
  
 Use, reproduction and disclosure by the US Government is
 subject to restrictions as set forth in subparagraphs (a)
 and (c) of the Commercial Computer Software - Restricted
 Rights clause in FAR 52.227-19.
  
 Gaussian, Inc.
 340 Quinnipiac St., Bldg. 40, Wallingford CT 06492
  
  
 ---------------------------------------------------------------
 Warning -- This program may not be used in any manner that
 competes with the business of Gaussian, Inc. or will provide
 assistance to any competitor of Gaussian, Inc.  The licensee
 of this program is prohibited from giving any competitor of
 Gaussian, Inc. access to this program.  By using this program,
 the user acknowledges that Gaussian, Inc. is engaged in the
 business of creating and licensing software in the field of
 computational chemistry and represents and warrants to the
 licensee that it is not a competitor of Gaussian, Inc. and that
 it will not use this program in any manner prohibited above.
 ---------------------------------------------------------------
  

 Cite this work as:
 Gaussian 09, Revision B.01,
 M. J. Frisch, G. W. Trucks, H. B. Schlegel, G. E. Scuseria, 
 M. A. Robb, J. R. Cheeseman, G. Scalmani, V. Barone, B. Mennucci, 
 G. A. Petersson, H. Nakatsuji, M. Caricato, X. Li, H. P. Hratchian, 
 A. F. Izmaylov, J. Bloino, G. Zheng, J. L. Sonnenberg, M. Hada, 
 M. Ehara, K. Toyota, R. Fukuda, J. Hasegawa, M. Ishida, T. Nakajima, 
 Y. Honda, O. Kitao, H. Nakai, T. Vreven, J. A. Montgomery, Jr., 
 J. E. Peralta, F. Ogliaro, M. Bearpark, J. J. Heyd, E. Brothers, 
 K. N. Kudin, V. N. Staroverov, T. Keith, R. Kobayashi, J. Normand, 
 K. Raghavachari, A. Rendell, J. C. Burant, S. S. Iyengar, J. Tomasi, 
 M. Cossi, N. Rega, J. M. Millam, M. Klene, J. E. Knox, J. B. Cross, 
 V. Bakken, C. Adamo, J. Jaramillo, R. Gomperts, R. E. Stratmann, 
 O. Yazyev, A. J. Austin, R. Cammi, C. Pomelli, J. W. Ochterski, 
 R. L. Martin, K. Morokuma, V. G. Zakrzewski, G. A. Voth, 
 P. Salvador, J. J. Dannenberg, S. Dapprich, A. D. Daniels, 
 O. Farkas, J. B. Foresman, J. V. Ortiz, J. Cioslowski, 
 and D. J. Fox, Gaussian, Inc., Wallingford CT, 2010.
 
 ******************************************
 Gaussian 09:  EM64L-G09RevB.01 12-Aug-2010
                26-Apr-2018 
 ******************************************
 %nprocshared=20
 Will use up to   20 processors via shared memory.
 %mem=5GB
 ----------------------------------------
 #p hf/6-31g* opt=(ts,calcfc,noeigentest)
 ----------------------------------------
 1/5=1,10=4,11=1,18=20,38=1/1,3;
 2/9=110,12=2,17=6,18=5,40=1/2;
 3/5=1,6=6,7=1,11=9,16=1,25=1,30=1,71=2/1,2,3;
 4//1;
 5/5=2,38=5/2;
 8/6=4,10=90,11=11/1;
 11/6=1,8=1,9=11,15=111,16=1/1,2,10;
 10/6=1,7=6,13=1/2;
 6/7=2,8=2,9=2,10=2,28=1/1;
 7/10=1,18=20,25=1/1,2,3,16;
 1/5=1,10=4,11=1,18=20/3(2);
 2/9=110/2;
 99//99;
 2/9=110/2;
 3/5=1,6=6,7=1,11=9,16=1,25=1,30=1,71=1/1,2,3;
 4/5=5,16=3/1;
 5/5=2,38=5/2;
 7//1,2,3,16;
 1/5=1,11=1,18=20/3(-5);
 2/9=110/2;
 6/7=2,8=2,9=2,10=2,19=2,28=1/1;
 99/9=1/99;
 Leave Link    1 at Thu Apr 26 13:15:21 2018, MaxMem=  671088640 cpu:       2.7
 (Enter /shared/apps/gaussian/G09_LINUX_LINDA/g09/l101.exe)
 ------------------------------
 Gaussian input prepared by ASE
 ------------------------------
 Symbolic Z-matrix:
 Charge =  0 Multiplicity = 2
 O                    -2.49678   1.03221  -2.10322 
 O                    -1.79324   0.2704   -2.98453 
 C                     0.5031    1.17413  -1.04369 
 C                     0.78357   0.12378  -0.22903 
 C                    -0.57192   2.15007  -0.8907 
 C                     1.93862  -0.79791  -0.53232 
 C                     0.0215   -0.20778   1.02969 
 H                    -1.58455  -0.51568  -2.493 
 H                     1.11112   1.29091  -1.92513 
 H                    -1.61728   1.71286  -1.54995 
 H                    -0.39223   3.0935   -1.38638 
 H                    -0.97404   2.28708   0.10125 
 H                     2.45507  -0.51465  -1.44178 
 H                     2.66092  -0.79211   0.2811 
 H                     1.59942  -1.82582  -0.64223 
 H                    -0.84851   0.41619   1.17962 
 H                    -0.31414  -1.24192   1.00733 
 H                     0.66383  -0.10641   1.90179 
 
 NAtoms=     18 NQM=     18 NQMF=      0 NMic=      0 NMicF=      0 NTot=     18.
                    Isotopes and Nuclear Properties:
 (Nuclear quadrupole moments (NQMom) in fm**2, nuclear magnetic moments (NMagM)
  in nuclear magnetons)

  Atom         1           2           3           4           5           6           7           8           9          10
 IAtWgt=          16          16          12          12          12          12          12           1           1           1
 AtmWgt=  15.9949146  15.9949146  12.0000000  12.0000000  12.0000000  12.0000000  12.0000000   1.0078250   1.0078250   1.0078250
 NucSpn=           0           0           0           0           0           0           0           1           1           1
 AtZEff=   0.0000000   0.0000000   0.0000000   0.0000000   0.0000000   0.0000000   0.0000000   0.0000000   0.0000000   0.0000000
 NQMom=    0.0000000   0.0000000   0.0000000   0.0000000   0.0000000   0.0000000   0.0000000   0.0000000   0.0000000   0.0000000
 NMagM=    0.0000000   0.0000000   0.0000000   0.0000000   0.0000000   0.0000000   0.0000000   2.7928460   2.7928460   2.7928460

  Atom        11          12          13          14          15          16          17          18
 IAtWgt=           1           1           1           1           1           1           1           1
 AtmWgt=   1.0078250   1.0078250   1.0078250   1.0078250   1.0078250   1.0078250   1.0078250   1.0078250
 NucSpn=           1           1           1           1           1           1           1           1
 AtZEff=   0.0000000   0.0000000   0.0000000   0.0000000   0.0000000   0.0000000   0.0000000   0.0000000
 NQMom=    0.0000000   0.0000000   0.0000000   0.0000000   0.0000000   0.0000000   0.0000000   0.0000000
 NMagM=    2.7928460   2.7928460   2.7928460   2.7928460   2.7928460   2.7928460   2.7928460   2.7928460
 Leave Link  101 at Thu Apr 26 13:15:21 2018, MaxMem=  671088640 cpu:       1.2
 (Enter /shared/apps/gaussian/G09_LINUX_LINDA/g09/l103.exe)

 GradGradGradGradGradGradGradGradGradGradGradGradGradGradGradGradGradGrad
 Berny optimization.
 Initialization pass.
                           ----------------------------
                           !    Initial Parameters    !
                           ! (Angstroms and Degrees)  !
 --------------------------                            --------------------------
 ! Name  Definition              Value          Derivative Info.                !
 --------------------------------------------------------------------------------
 ! R1    R(1,2)                  1.3609         calculate D2E/DX2 analytically  !
 ! R2    R(1,10)                 1.2421         calculate D2E/DX2 analytically  !
 ! R3    R(2,8)                  0.9503         calculate D2E/DX2 analytically  !
 ! R4    R(3,4)                  1.3585         calculate D2E/DX2 analytically  !
 ! R5    R(3,5)                  1.46           calculate D2E/DX2 analytically  !
 ! R6    R(3,9)                  1.0772         calculate D2E/DX2 analytically  !
 ! R7    R(4,6)                  1.5085         calculate D2E/DX2 analytically  !
 ! R8    R(4,7)                  1.5083         calculate D2E/DX2 analytically  !
 ! R9    R(5,10)                 1.3109         calculate D2E/DX2 analytically  !
 ! R10   R(5,11)                 1.0808         calculate D2E/DX2 analytically  !
 ! R11   R(5,12)                 1.0791         calculate D2E/DX2 analytically  !
 ! R12   R(6,13)                 1.0835         calculate D2E/DX2 analytically  !
 ! R13   R(6,14)                 1.0878         calculate D2E/DX2 analytically  !
 ! R14   R(6,15)                 1.088          calculate D2E/DX2 analytically  !
 ! R15   R(7,16)                 1.0811         calculate D2E/DX2 analytically  !
 ! R16   R(7,17)                 1.0875         calculate D2E/DX2 analytically  !
 ! R17   R(7,18)                 1.0878         calculate D2E/DX2 analytically  !
 ! A1    A(2,1,10)             103.2472         calculate D2E/DX2 analytically  !
 ! A2    A(1,2,8)              103.9822         calculate D2E/DX2 analytically  !
 ! A3    A(4,3,5)              127.3014         calculate D2E/DX2 analytically  !
 ! A4    A(4,3,9)              117.2577         calculate D2E/DX2 analytically  !
 ! A5    A(5,3,9)              115.3986         calculate D2E/DX2 analytically  !
 ! A6    A(3,4,6)              120.6573         calculate D2E/DX2 analytically  !
 ! A7    A(3,4,7)              124.4774         calculate D2E/DX2 analytically  !
 ! A8    A(6,4,7)              114.8552         calculate D2E/DX2 analytically  !
 ! A9    A(3,5,10)             108.1513         calculate D2E/DX2 analytically  !
 ! A10   A(3,5,11)             114.3956         calculate D2E/DX2 analytically  !
 ! A11   A(3,5,12)             117.1028         calculate D2E/DX2 analytically  !
 ! A12   A(10,5,11)            101.1325         calculate D2E/DX2 analytically  !
 ! A13   A(10,5,12)            101.9741         calculate D2E/DX2 analytically  !
 ! A14   A(11,5,12)            111.8834         calculate D2E/DX2 analytically  !
 ! A15   A(4,6,13)             111.9607         calculate D2E/DX2 analytically  !
 ! A16   A(4,6,14)             110.781          calculate D2E/DX2 analytically  !
 ! A17   A(4,6,15)             111.0288         calculate D2E/DX2 analytically  !
 ! A18   A(13,6,14)            108.0439         calculate D2E/DX2 analytically  !
 ! A19   A(13,6,15)            108.1069         calculate D2E/DX2 analytically  !
 ! A20   A(14,6,15)            106.7133         calculate D2E/DX2 analytically  !
 ! A21   A(4,7,16)             113.2944         calculate D2E/DX2 analytically  !
 ! A22   A(4,7,17)             110.3544         calculate D2E/DX2 analytically  !
 ! A23   A(4,7,18)             110.4996         calculate D2E/DX2 analytically  !
 ! A24   A(16,7,17)            107.6577         calculate D2E/DX2 analytically  !
 ! A25   A(16,7,18)            108.0717         calculate D2E/DX2 analytically  !
 ! A26   A(17,7,18)            106.6987         calculate D2E/DX2 analytically  !
 ! A27   A(1,10,5)             166.2545         calculate D2E/DX2 analytically  !
 ! D1    D(10,1,2,8)            90.7292         calculate D2E/DX2 analytically  !
 ! D2    D(2,1,10,5)           -58.028          calculate D2E/DX2 analytically  !
 ! D3    D(5,3,4,6)            179.9369         calculate D2E/DX2 analytically  !
 ! D4    D(5,3,4,7)             -1.2791         calculate D2E/DX2 analytically  !
 ! D5    D(9,3,4,6)              2.426          calculate D2E/DX2 analytically  !
 ! D6    D(9,3,4,7)           -178.79           calculate D2E/DX2 analytically  !
 ! D7    D(4,3,5,10)           -91.4821         calculate D2E/DX2 analytically  !
 ! D8    D(4,3,5,11)           156.6916         calculate D2E/DX2 analytically  !
 ! D9    D(4,3,5,12)            22.9146         calculate D2E/DX2 analytically  !
 ! D10   D(9,3,5,10)            86.0684         calculate D2E/DX2 analytically  !
 ! D11   D(9,3,5,11)           -25.7579         calculate D2E/DX2 analytically  !
 ! D12   D(9,3,5,12)          -159.5349         calculate D2E/DX2 analytically  !
 ! D13   D(3,4,6,13)            -0.8189         calculate D2E/DX2 analytically  !
 ! D14   D(3,4,6,14)           119.8608         calculate D2E/DX2 analytically  !
 ! D15   D(3,4,6,15)          -121.7518         calculate D2E/DX2 analytically  !
 ! D16   D(7,4,6,13)          -179.7142         calculate D2E/DX2 analytically  !
 ! D17   D(7,4,6,14)           -59.0345         calculate D2E/DX2 analytically  !
 ! D18   D(7,4,6,15)            59.3529         calculate D2E/DX2 analytically  !
 ! D19   D(3,4,7,16)             5.9412         calculate D2E/DX2 analytically  !
 ! D20   D(3,4,7,17)           126.7367         calculate D2E/DX2 analytically  !
 ! D21   D(3,4,7,18)          -115.4948         calculate D2E/DX2 analytically  !
 ! D22   D(6,4,7,16)          -175.2116         calculate D2E/DX2 analytically  !
 ! D23   D(6,4,7,17)           -54.4161         calculate D2E/DX2 analytically  !
 ! D24   D(6,4,7,18)            63.3524         calculate D2E/DX2 analytically  !
 ! D25   D(3,5,10,1)            30.6655         calculate D2E/DX2 analytically  !
 ! D26   D(11,5,10,1)          151.1638         calculate D2E/DX2 analytically  !
 ! D27   D(12,5,10,1)          -93.3655         calculate D2E/DX2 analytically  !
 --------------------------------------------------------------------------------
 Trust Radius=3.00D-01 FncErr=1.00D-07 GrdErr=1.00D-07
 Number of steps in this run=     81 maximum allowed number of steps=    108.
 Search for a saddle point of order  1.
 GradGradGradGradGradGradGradGradGradGradGradGradGradGradGradGradGradGrad

 Leave Link  103 at Thu Apr 26 13:15:22 2018, MaxMem=  671088640 cpu:       0.2
 (Enter /shared/apps/gaussian/G09_LINUX_LINDA/g09/l202.exe)
                          Input orientation:                          
 ---------------------------------------------------------------------
 Center     Atomic      Atomic             Coordinates (Angstroms)
 Number     Number       Type             X           Y           Z
 ---------------------------------------------------------------------
      1          8           0       -2.496783    1.032210   -2.103219
      2          8           0       -1.793244    0.270404   -2.984529
      3          6           0        0.503095    1.174133   -1.043686
      4          6           0        0.783568    0.123785   -0.229025
      5          6           0       -0.571924    2.150068   -0.890701
      6          6           0        1.938625   -0.797909   -0.532323
      7          6           0        0.021504   -0.207781    1.029688
      8          1           0       -1.584547   -0.515680   -2.492997
      9          1           0        1.111123    1.290910   -1.925134
     10          1           0       -1.617280    1.712859   -1.549946
     11          1           0       -0.392227    3.093504   -1.386378
     12          1           0       -0.974043    2.287084    0.101253
     13          1           0        2.455067   -0.514647   -1.441781
     14          1           0        2.660919   -0.792107    0.281095
     15          1           0        1.599420   -1.825820   -0.642234
     16          1           0       -0.848508    0.416194    1.179623
     17          1           0       -0.314144   -1.241919    1.007328
     18          1           0        0.663829   -0.106413    1.901788
 ---------------------------------------------------------------------
                    Distance matrix (angstroms):
                    1          2          3          4          5
     1  O    0.000000
     2  O    1.360890   0.000000
     3  C    3.184654   3.139550   0.000000
     4  C    3.885683   3.775481   1.358517   0.000000
     5  C    2.534736   3.067389   1.459973   2.526064   0.000000
     6  C    5.048751   4.591454   2.492225   1.508531   3.888684
     7  C    4.206477   4.431242   2.537813   1.508322   3.098307
     8  H    1.838495   0.950308   3.051921   3.338031   3.270928
     9  H    3.621550   3.255626   1.077165   2.084768   2.154264
    10  H    1.242143   2.041977   2.245555   3.167658   1.310925
    11  H    3.031823   3.533671   2.145467   3.397233   1.080767
    12  H    2.958571   3.776260   2.175197   2.806803   1.079095
    13  H    5.229826   4.587431   2.611638   2.161546   4.070267
    14  H    5.967828   5.624304   3.205830   2.150239   4.525569
    15  H    5.204007   4.625005   3.219131   2.153442   4.536976
    16  H    3.724692   4.272463   2.710056   2.175653   2.714601
    17  H    4.428439   4.517718   3.272895   2.144455   3.895451
    18  H    5.227428   5.482271   3.215812   2.146554   3.796945
                    6          7          8          9         10
     6  C    0.000000
     7  C    2.542338   0.000000
     8  H    4.041861   3.883750   0.000000
     9  H    2.643453   3.487738   3.294370   0.000000
    10  H    4.470344   3.609568   2.420083   2.786214   0.000000
    11  H    4.615775   4.111816   3.958844   2.408250   1.853021
    12  H    4.289782   2.842086   3.867601   3.073520   1.862779
    13  H    1.083542   3.482033   4.174152   2.302141   4.643005
    14  H    1.087838   2.805056   5.078975   3.407092   5.284936
    15  H    1.087999   2.811261   3.908892   3.405623   4.867581
    16  H    3.488970   1.081085   3.859829   3.774228   3.118156
    17  H    2.764532   1.087474   3.793893   4.128673   4.119287
    18  H    2.833402   1.087849   4.953467   4.098526   4.519699
                   11         12         13         14         15
    11  H    0.000000
    12  H    1.789377   0.000000
    13  H    4.596619   4.689290   0.000000
    14  H    5.215376   4.767253   1.757174   0.000000
    15  H    5.359119   4.908305   1.758005   1.745817   0.000000
    16  H    3.736381   2.163069   4.318777   3.818824   3.786573
    17  H    4.952960   3.702741   3.767704   3.095278   2.593014
    18  H    4.708159   3.413704   3.815054   2.661802   3.209943
                   16         17         18
    16  H    0.000000
    17  H    1.750590   0.000000
    18  H    1.755507   1.745240   0.000000
 Stoichiometry    C5H11O2(2)
 Framework group  C1[X(C5H11O2)]
 Deg. of freedom    48
 Full point group                 C1      NOp   1
 Largest Abelian subgroup         C1      NOp   1
 Largest concise Abelian subgroup C1      NOp   1
                         Standard orientation:                         
 ---------------------------------------------------------------------
 Center     Atomic      Atomic             Coordinates (Angstroms)
 Number     Number       Type             X           Y           Z
 ---------------------------------------------------------------------
      1          8           0        2.493075   -0.102703    0.518289
      2          8           0        2.220969    1.193997    0.207566
      3          6           0       -0.333711   -0.222072   -0.943578
      4          6           0       -1.347465   -0.008656   -0.064759
      5          6           0        0.703792   -1.246304   -0.865739
      6          6           0       -2.342202    1.102244   -0.292937
      7          6           0       -1.596910   -0.839488    1.169150
      8          1           0        1.530694    1.435542    0.814412
      9          1           0       -0.252192    0.455748   -1.776764
     10          1           0        1.730352   -0.740007   -0.226706
     11          1           0        1.153332   -1.499419   -1.815425
     12          1           0        0.484819   -2.124201   -0.277698
     13          1           0       -2.122155    1.664765   -1.192499
     14          1           0       -3.350878    0.704788   -0.382348
     15          1           0       -2.352278    1.795587    0.545463
     16          1           0       -0.825300   -1.573994    1.353170
     17          1           0       -1.661687   -0.201911    2.047729
     18          1           0       -2.548076   -1.361591    1.091006
 ---------------------------------------------------------------------
 Rotational constants (GHZ):      3.5065251      1.2623274      1.1817971
 Leave Link  202 at Thu Apr 26 13:15:22 2018, MaxMem=  671088640 cpu:       0.8
 (Enter /shared/apps/gaussian/G09_LINUX_LINDA/g09/l301.exe)
 Standard basis: 6-31G(d) (6D, 7F)
 Ernie: Thresh=  0.10000D-02 Tol=  0.10000D-05 Strict=F.
 There are   127 symmetry adapted basis functions of A   symmetry.
 Integral buffers will be    131072 words long.
 Raffenetti 2 integral format.
 Two-electron integral symmetry is turned on.
   127 basis functions,   240 primitive gaussians,   127 cartesian basis functions
    29 alpha electrons       28 beta electrons
       nuclear repulsion energy       305.4097911480 Hartrees.
 IExCor=    0 DFT=F Ex=HF Corr=None ExCW=0 ScaHFX=  1.000000
 ScaDFX=  1.000000  1.000000  1.000000  1.000000 ScalE2=  1.000000  1.000000
 IRadAn=      0 IRanWt=     -1 IRanGd=            0 ICorTp=0
 NAtoms=   18 NActive=   18 NUniq=   18 SFac= 1.00D+00 NAtFMM=   50 NAOKFM=F Big=F
 Leave Link  301 at Thu Apr 26 13:15:22 2018, MaxMem=  671088640 cpu:       1.0
 (Enter /shared/apps/gaussian/G09_LINUX_LINDA/g09/l302.exe)
 NPDir=0 NMtPBC=     1 NCelOv=     1 NCel=       1 NClECP=     1 NCelD=      1
         NCelK=      1 NCelE2=     1 NClLst=     1 CellRange=     0.0.
 One-electron integrals computed using PRISM.
 NBasis=   127 RedAO= T  NBF=   127
 NBsUse=   127 1.00D-06 NBFU=   127
 Leave Link  302 at Thu Apr 26 13:15:23 2018, MaxMem=  671088640 cpu:       6.4
 (Enter /shared/apps/gaussian/G09_LINUX_LINDA/g09/l303.exe)
 DipDrv:  MaxL=1.
 Leave Link  303 at Thu Apr 26 13:15:23 2018, MaxMem=  671088640 cpu:       1.8
 (Enter /shared/apps/gaussian/G09_LINUX_LINDA/g09/l401.exe)
 Harris functional with IExCor=  205 diagonalized for initial guess.
 ExpMin= 1.61D-01 ExpMax= 5.48D+03 ExpMxC= 8.25D+02 IAcc=1 IRadAn=         1 AccDes= 0.00D+00
 HarFok:  IExCor=  205 AccDes= 0.00D+00 IRadAn=         1 IDoV= 1
 ScaDFX=  1.000000  1.000000  1.000000  1.000000
 FoFCou: FMM=F IPFlag=           0 FMFlag=      100000 FMFlg1=           0
         NFxFlg=           0 DoJE=T BraDBF=F KetDBF=T FulRan=T
         Omega=  0.000000  0.000000  1.000000  0.000000  0.000000 ICntrl=     500 IOpCl=  0
         NMat0=    1 NMatS0=    1 NMatT0=    0 NMatD0=    1 NMtDS0=    0 NMtDT0=    0
         I1Cent=           4 NGrid=           0.
 Petite list used in FoFCou.
 Harris En= -345.812553213682    
 Initial guess orbital symmetries:
 Alpha Orbitals:
       Occupied  (A) (A) (A) (A) (A) (A) (A) (A) (A) (A) (A) (A)
                 (A) (A) (A) (A) (A) (A) (A) (A) (A) (A) (A) (A)
                 (A) (A) (A) (A) (A)
       Virtual   (A) (A) (A) (A) (A) (A) (A) (A) (A) (A) (A) (A)
                 (A) (A) (A) (A) (A) (A) (A) (A) (A) (A) (A) (A)
                 (A) (A) (A) (A) (A) (A) (A) (A) (A) (A) (A) (A)
                 (A) (A) (A) (A) (A) (A) (A) (A) (A) (A) (A) (A)
                 (A) (A) (A) (A) (A) (A) (A) (A) (A) (A) (A) (A)
                 (A) (A) (A) (A) (A) (A) (A) (A) (A) (A) (A) (A)
                 (A) (A) (A) (A) (A) (A) (A) (A) (A) (A) (A) (A)
                 (A) (A) (A) (A) (A) (A) (A) (A) (A) (A) (A) (A)
                 (A) (A)
 Beta  Orbitals:
       Occupied  (A) (A) (A) (A) (A) (A) (A) (A) (A) (A) (A) (A)
                 (A) (A) (A) (A) (A) (A) (A) (A) (A) (A) (A) (A)
                 (A) (A) (A) (A)
       Virtual   (A) (A) (A) (A) (A) (A) (A) (A) (A) (A) (A) (A)
                 (A) (A) (A) (A) (A) (A) (A) (A) (A) (A) (A) (A)
                 (A) (A) (A) (A) (A) (A) (A) (A) (A) (A) (A) (A)
                 (A) (A) (A) (A) (A) (A) (A) (A) (A) (A) (A) (A)
                 (A) (A) (A) (A) (A) (A) (A) (A) (A) (A) (A) (A)
                 (A) (A) (A) (A) (A) (A) (A) (A) (A) (A) (A) (A)
                 (A) (A) (A) (A) (A) (A) (A) (A) (A) (A) (A) (A)
                 (A) (A) (A) (A) (A) (A) (A) (A) (A) (A) (A) (A)
                 (A) (A) (A)
 The electronic state of the initial guess is 2-A.
 Initial guess <Sx>= 0.0000 <Sy>= 0.0000 <Sz>= 0.5000 <S**2>= 0.7500 S= 0.5000
 Leave Link  401 at Thu Apr 26 13:15:26 2018, MaxMem=  671088640 cpu:      21.6
 (Enter /shared/apps/gaussian/G09_LINUX_LINDA/g09/l502.exe)
 UHF open shell SCF:
 Requested convergence on RMS density matrix=1.00D-08 within 128 cycles.
 Requested convergence on MAX density matrix=1.00D-06.
 Requested convergence on             energy=1.00D-06.
 No special actions if energy rises.
 Using DIIS extrapolation, IDIIS=  1040.
 Integral symmetry usage will be decided dynamically.
 Keep R1 and R2 ints in memory in canonical form, NReq=67191093.
 IEnd=       70048 IEndB=       70048 NGot=   671088640 MDV=   604978949
 LenX=   604978949 LenY=   604962379
 Symmetry not used in FoFDir.
 MinBra= 0 MaxBra= 2 Meth= 1.
 IRaf=       0 NMat=   1 IRICut=       1 DoRegI=T DoRafI=F ISym2E= 0 JSym2E=0.

 Cycle   1  Pass 1  IDiag  1:
 E= -344.875453786092    
 DIIS: error= 5.93D-02 at cycle   1 NSaved=   1.
 NSaved= 1 IEnMin= 1 EnMin= -344.875453786092     IErMin= 1 ErrMin= 5.93D-02
 ErrMax= 5.93D-02 EMaxC= 1.00D-01 BMatC= 1.99D+00 BMatP= 1.99D+00
 IDIUse=3 WtCom= 4.07D-01 WtEn= 5.93D-01
 Coeff-Com:  0.100D+01
 Coeff-En:   0.100D+01
 Coeff:      0.100D+01
 Gap=     0.581 Goal=   None    Shift=    0.000
 Gap=     0.534 Goal=   None    Shift=    0.000
 GapD=    0.534 DampG=2.000 DampE=0.500 DampFc=1.0000 IDamp=-1.
 RMSDP=5.65D-03 MaxDP=1.12D-01              OVMax= 1.97D-01

 Cycle   2  Pass 1  IDiag  1:
 E= -345.189489647476     Delta-E=       -0.314035861384 Rises=F Damp=F
 DIIS: error= 1.68D-02 at cycle   2 NSaved=   2.
 NSaved= 2 IEnMin= 2 EnMin= -345.189489647476     IErMin= 2 ErrMin= 1.68D-02
 ErrMax= 1.68D-02 EMaxC= 1.00D-01 BMatC= 2.14D-01 BMatP= 1.99D+00
 IDIUse=3 WtCom= 8.32D-01 WtEn= 1.68D-01
 Coeff-Com:  0.172D+00 0.828D+00
 Coeff-En:   0.000D+00 0.100D+01
 Coeff:      0.143D+00 0.857D+00
 Gap=     0.561 Goal=   None    Shift=    0.000
 Gap=     0.358 Goal=   None    Shift=    0.000
 RMSDP=2.46D-03 MaxDP=4.14D-02 DE=-3.14D-01 OVMax= 8.91D-02

 Cycle   3  Pass 1  IDiag  1:
 E= -345.242452275395     Delta-E=       -0.052962627919 Rises=F Damp=F
 DIIS: error= 6.42D-03 at cycle   3 NSaved=   3.
 NSaved= 3 IEnMin= 3 EnMin= -345.242452275395     IErMin= 3 ErrMin= 6.42D-03
 ErrMax= 6.42D-03 EMaxC= 1.00D-01 BMatC= 1.85D-02 BMatP= 2.14D-01
 IDIUse=3 WtCom= 9.36D-01 WtEn= 6.42D-02
 Coeff-Com: -0.203D-01 0.146D+00 0.874D+00
 Coeff-En:   0.000D+00 0.000D+00 0.100D+01
 Coeff:     -0.190D-01 0.137D+00 0.882D+00
 Gap=     0.498 Goal=   None    Shift=    0.000
 Gap=     0.362 Goal=   None    Shift=    0.000
 RMSDP=6.79D-04 MaxDP=1.50D-02 DE=-5.30D-02 OVMax= 4.95D-02

 Cycle   4  Pass 1  IDiag  1:
 E= -345.250647816955     Delta-E=       -0.008195541559 Rises=F Damp=F
 DIIS: error= 4.94D-03 at cycle   4 NSaved=   4.
 NSaved= 4 IEnMin= 4 EnMin= -345.250647816955     IErMin= 4 ErrMin= 4.94D-03
 ErrMax= 4.94D-03 EMaxC= 1.00D-01 BMatC= 3.78D-03 BMatP= 1.85D-02
 IDIUse=3 WtCom= 9.51D-01 WtEn= 4.94D-02
 Coeff-Com: -0.670D-02-0.211D-01 0.781D-01 0.950D+00
 Coeff-En:   0.000D+00 0.000D+00 0.000D+00 0.100D+01
 Coeff:     -0.637D-02-0.201D-01 0.743D-01 0.952D+00
 Gap=     0.498 Goal=   None    Shift=    0.000
 Gap=     0.380 Goal=   None    Shift=    0.000
 RMSDP=3.78D-04 MaxDP=1.19D-02 DE=-8.20D-03 OVMax= 3.01D-02

 Cycle   5  Pass 1  IDiag  1:
 E= -345.253738388012     Delta-E=       -0.003090571058 Rises=F Damp=F
 DIIS: error= 2.63D-03 at cycle   5 NSaved=   5.
 NSaved= 5 IEnMin= 5 EnMin= -345.253738388012     IErMin= 5 ErrMin= 2.63D-03
 ErrMax= 2.63D-03 EMaxC= 1.00D-01 BMatC= 1.93D-03 BMatP= 3.78D-03
 IDIUse=3 WtCom= 9.74D-01 WtEn= 2.63D-02
 Coeff-Com:  0.121D-01-0.647D-01-0.439D+00-0.147D+00 0.164D+01
 Coeff-En:   0.000D+00 0.000D+00 0.000D+00 0.000D+00 0.100D+01
 Coeff:      0.118D-01-0.630D-01-0.427D+00-0.143D+00 0.162D+01
 Gap=     0.508 Goal=   None    Shift=    0.000
 Gap=     0.406 Goal=   None    Shift=    0.000
 RMSDP=5.86D-04 MaxDP=1.95D-02 DE=-3.09D-03 OVMax= 4.20D-02

 Cycle   6  Pass 1  IDiag  1:
 E= -345.256572965281     Delta-E=       -0.002834577269 Rises=F Damp=F
 DIIS: error= 1.23D-03 at cycle   6 NSaved=   6.
 NSaved= 6 IEnMin= 6 EnMin= -345.256572965281     IErMin= 6 ErrMin= 1.23D-03
 ErrMax= 1.23D-03 EMaxC= 1.00D-01 BMatC= 4.72D-04 BMatP= 1.93D-03
 IDIUse=3 WtCom= 9.88D-01 WtEn= 1.23D-02
 Coeff-Com:  0.256D-02 0.333D-02-0.426D-01-0.169D+00 0.169D+00 0.104D+01
 Coeff-En:   0.000D+00 0.000D+00 0.000D+00 0.000D+00 0.000D+00 0.100D+01
 Coeff:      0.253D-02 0.329D-02-0.420D-01-0.167D+00 0.167D+00 0.104D+01
 Gap=     0.510 Goal=   None    Shift=    0.000
 Gap=     0.414 Goal=   None    Shift=    0.000
 RMSDP=1.99D-04 MaxDP=4.38D-03 DE=-2.83D-03 OVMax= 1.58D-02

 Cycle   7  Pass 1  IDiag  1:
 E= -345.257151258864     Delta-E=       -0.000578293582 Rises=F Damp=F
 DIIS: error= 7.01D-04 at cycle   7 NSaved=   7.
 NSaved= 7 IEnMin= 7 EnMin= -345.257151258864     IErMin= 7 ErrMin= 7.01D-04
 ErrMax= 7.01D-04 EMaxC= 1.00D-01 BMatC= 2.48D-04 BMatP= 4.72D-04
 IDIUse=3 WtCom= 9.93D-01 WtEn= 7.01D-03
 Coeff-Com: -0.328D-02 0.223D-01 0.128D+00 0.209D-01-0.502D+00 0.144D+00
 Coeff-Com:  0.119D+01
 Coeff-En:   0.000D+00 0.000D+00 0.000D+00 0.000D+00 0.000D+00 0.000D+00
 Coeff-En:   0.100D+01
 Coeff:     -0.325D-02 0.221D-01 0.127D+00 0.207D-01-0.498D+00 0.143D+00
 Coeff:      0.119D+01
 Gap=     0.512 Goal=   None    Shift=    0.000
 Gap=     0.418 Goal=   None    Shift=    0.000
 RMSDP=1.89D-04 MaxDP=3.48D-03 DE=-5.78D-04 OVMax= 1.70D-02

 Cycle   8  Pass 1  IDiag  1:
 E= -345.257588151659     Delta-E=       -0.000436892795 Rises=F Damp=F
 DIIS: error= 6.63D-04 at cycle   8 NSaved=   8.
 NSaved= 8 IEnMin= 8 EnMin= -345.257588151659     IErMin= 8 ErrMin= 6.63D-04
 ErrMax= 6.63D-04 EMaxC= 1.00D-01 BMatC= 1.37D-04 BMatP= 2.48D-04
 IDIUse=3 WtCom= 9.93D-01 WtEn= 6.63D-03
 Coeff-Com:  0.218D-02-0.226D-01-0.107D+00 0.676D-01 0.352D+00-0.596D+00
 Coeff-Com: -0.110D+01 0.240D+01
 Coeff-En:   0.000D+00 0.000D+00 0.000D+00 0.000D+00 0.000D+00 0.000D+00
 Coeff-En:   0.000D+00 0.100D+01
 Coeff:      0.217D-02-0.224D-01-0.106D+00 0.672D-01 0.350D+00-0.592D+00
 Coeff:     -0.109D+01 0.239D+01
 Gap=     0.517 Goal=   None    Shift=    0.000
 Gap=     0.423 Goal=   None    Shift=    0.000
 RMSDP=2.94D-04 MaxDP=5.65D-03 DE=-4.37D-04 OVMax= 2.77D-02

 Cycle   9  Pass 1  IDiag  1:
 E= -345.258070004583     Delta-E=       -0.000481852924 Rises=F Damp=F
 DIIS: error= 4.75D-04 at cycle   9 NSaved=   9.
 NSaved= 9 IEnMin= 9 EnMin= -345.258070004583     IErMin= 9 ErrMin= 4.75D-04
 ErrMax= 4.75D-04 EMaxC= 1.00D-01 BMatC= 5.03D-05 BMatP= 1.37D-04
 IDIUse=3 WtCom= 9.95D-01 WtEn= 4.75D-03
 Coeff-Com:  0.146D-02-0.520D-02-0.434D-01-0.652D-01 0.236D+00 0.152D+00
 Coeff-Com: -0.186D+00-0.113D+01 0.204D+01
 Coeff-En:   0.000D+00 0.000D+00 0.000D+00 0.000D+00 0.000D+00 0.000D+00
 Coeff-En:   0.000D+00 0.000D+00 0.100D+01
 Coeff:      0.145D-02-0.517D-02-0.432D-01-0.649D-01 0.235D+00 0.152D+00
 Coeff:     -0.185D+00-0.112D+01 0.203D+01
 Gap=     0.522 Goal=   None    Shift=    0.000
 Gap=     0.427 Goal=   None    Shift=    0.000
 RMSDP=2.46D-04 MaxDP=5.00D-03 DE=-4.82D-04 OVMax= 2.28D-02

 Cycle  10  Pass 1  IDiag  1:
 E= -345.258267835606     Delta-E=       -0.000197831023 Rises=F Damp=F
 DIIS: error= 2.11D-04 at cycle  10 NSaved=  10.
 NSaved=10 IEnMin=10 EnMin= -345.258267835606     IErMin=10 ErrMin= 2.11D-04
 ErrMax= 2.11D-04 EMaxC= 1.00D-01 BMatC= 8.82D-06 BMatP= 5.03D-05
 IDIUse=3 WtCom= 9.98D-01 WtEn= 2.11D-03
 Coeff-Com: -0.528D-03 0.492D-02 0.257D-01-0.225D-01-0.682D-01 0.101D+00
 Coeff-Com:  0.237D+00-0.293D+00-0.338D+00 0.135D+01
 Coeff-En:   0.000D+00 0.000D+00 0.000D+00 0.000D+00 0.000D+00 0.000D+00
 Coeff-En:   0.000D+00 0.000D+00 0.000D+00 0.100D+01
 Coeff:     -0.527D-03 0.491D-02 0.256D-01-0.225D-01-0.680D-01 0.101D+00
 Coeff:      0.237D+00-0.292D+00-0.337D+00 0.135D+01
 Gap=     0.523 Goal=   None    Shift=    0.000
 Gap=     0.427 Goal=   None    Shift=    0.000
 RMSDP=5.79D-05 MaxDP=1.22D-03 DE=-1.98D-04 OVMax= 5.56D-03

 Cycle  11  Pass 1  IDiag  1:
 E= -345.258286870048     Delta-E=       -0.000019034442 Rises=F Damp=F
 DIIS: error= 1.02D-04 at cycle  11 NSaved=  11.
 NSaved=11 IEnMin=11 EnMin= -345.258286870048     IErMin=11 ErrMin= 1.02D-04
 ErrMax= 1.02D-04 EMaxC= 1.00D-01 BMatC= 2.62D-06 BMatP= 8.82D-06
 IDIUse=3 WtCom= 9.99D-01 WtEn= 1.02D-03
 Coeff-Com: -0.285D-03 0.933D-03 0.968D-02 0.675D-02-0.400D-01-0.316D-01
 Coeff-Com:  0.159D-02 0.290D+00-0.444D+00-0.133D+00 0.134D+01
 Coeff-En:   0.000D+00 0.000D+00 0.000D+00 0.000D+00 0.000D+00 0.000D+00
 Coeff-En:   0.000D+00 0.000D+00 0.000D+00 0.000D+00 0.100D+01
 Coeff:     -0.285D-03 0.932D-03 0.967D-02 0.674D-02-0.399D-01-0.315D-01
 Coeff:      0.159D-02 0.290D+00-0.444D+00-0.133D+00 0.134D+01
 Gap=     0.524 Goal=   None    Shift=    0.000
 Gap=     0.427 Goal=   None    Shift=    0.000
 RMSDP=2.82D-05 MaxDP=5.56D-04 DE=-1.90D-05 OVMax= 2.82D-03

 Cycle  12  Pass 1  IDiag  1:
 E= -345.258292096936     Delta-E=       -0.000005226888 Rises=F Damp=F
 DIIS: error= 6.95D-05 at cycle  12 NSaved=  12.
 NSaved=12 IEnMin=12 EnMin= -345.258292096936     IErMin=12 ErrMin= 6.95D-05
 ErrMax= 6.95D-05 EMaxC= 1.00D-01 BMatC= 9.38D-07 BMatP= 2.62D-06
 IDIUse=1 WtCom= 1.00D+00 WtEn= 0.00D+00
 Coeff-Com:  0.259D-03-0.167D-02-0.974D-02-0.634D-02 0.453D-01-0.120D-01
 Coeff-Com: -0.763D-01-0.392D-01 0.270D+00-0.304D+00-0.533D+00 0.167D+01
 Coeff:      0.259D-03-0.167D-02-0.974D-02-0.634D-02 0.453D-01-0.120D-01
 Coeff:     -0.763D-01-0.392D-01 0.270D+00-0.304D+00-0.533D+00 0.167D+01
 Gap=     0.524 Goal=   None    Shift=    0.000
 Gap=     0.428 Goal=   None    Shift=    0.000
 RMSDP=1.99D-05 MaxDP=3.44D-04 DE=-5.23D-06 OVMax= 1.98D-03

 Cycle  13  Pass 1  IDiag  1:
 E= -345.258294069339     Delta-E=       -0.000001972403 Rises=F Damp=F
 DIIS: error= 3.76D-05 at cycle  13 NSaved=  13.
 NSaved=13 IEnMin=13 EnMin= -345.258294069339     IErMin=13 ErrMin= 3.76D-05
 ErrMax= 3.76D-05 EMaxC= 1.00D-01 BMatC= 3.23D-07 BMatP= 9.38D-07
 IDIUse=1 WtCom= 1.00D+00 WtEn= 0.00D+00
 Coeff-Com:  0.390D-04 0.328D-05-0.819D-03-0.430D-02 0.128D-01 0.643D-02
 Coeff-Com:  0.164D-01-0.844D-01 0.104D+00 0.102D+00-0.383D+00-0.261D+00
 Coeff-Com:  0.149D+01
 Coeff:      0.390D-04 0.328D-05-0.819D-03-0.430D-02 0.128D-01 0.643D-02
 Coeff:      0.164D-01-0.844D-01 0.104D+00 0.102D+00-0.383D+00-0.261D+00
 Coeff:      0.149D+01
 Gap=     0.524 Goal=   None    Shift=    0.000
 Gap=     0.427 Goal=   None    Shift=    0.000
 RMSDP=1.05D-05 MaxDP=2.69D-04 DE=-1.97D-06 OVMax= 9.11D-04

 Cycle  14  Pass 1  IDiag  1:
 E= -345.258294679689     Delta-E=       -0.000000610351 Rises=F Damp=F
 DIIS: error= 1.99D-05 at cycle  14 NSaved=  14.
 NSaved=14 IEnMin=14 EnMin= -345.258294679689     IErMin=14 ErrMin= 1.99D-05
 ErrMax= 1.99D-05 EMaxC= 1.00D-01 BMatC= 9.66D-08 BMatP= 3.23D-07
 IDIUse=1 WtCom= 1.00D+00 WtEn= 0.00D+00
 Coeff-Com: -0.757D-04 0.495D-03 0.321D-02 0.560D-03-0.122D-01 0.324D-02
 Coeff-Com:  0.235D-01 0.151D-01-0.961D-01 0.116D+00 0.186D+00-0.645D+00
 Coeff-Com:  0.106D+00 0.130D+01
 Coeff:     -0.757D-04 0.495D-03 0.321D-02 0.560D-03-0.122D-01 0.324D-02
 Coeff:      0.235D-01 0.151D-01-0.961D-01 0.116D+00 0.186D+00-0.645D+00
 Coeff:      0.106D+00 0.130D+01
 Gap=     0.524 Goal=   None    Shift=    0.000
 Gap=     0.427 Goal=   None    Shift=    0.000
 RMSDP=6.15D-06 MaxDP=1.67D-04 DE=-6.10D-07 OVMax= 5.43D-04

 Cycle  15  Pass 1  IDiag  1:
 E= -345.258294859704     Delta-E=       -0.000000180015 Rises=F Damp=F
 DIIS: error= 9.62D-06 at cycle  15 NSaved=  15.
 NSaved=15 IEnMin=15 EnMin= -345.258294859704     IErMin=15 ErrMin= 9.62D-06
 ErrMax= 9.62D-06 EMaxC= 1.00D-01 BMatC= 2.37D-08 BMatP= 9.66D-08
 IDIUse=1 WtCom= 1.00D+00 WtEn= 0.00D+00
 Coeff-Com:  0.131D-04-0.142D-03-0.600D-03 0.340D-03 0.638D-04-0.109D-02
 Coeff-Com: -0.121D-01 0.169D-01-0.240D-02-0.542D-01 0.512D-01 0.210D+00
 Coeff-Com: -0.364D+00-0.426D+00 0.158D+01
 Coeff:      0.131D-04-0.142D-03-0.600D-03 0.340D-03 0.638D-04-0.109D-02
 Coeff:     -0.121D-01 0.169D-01-0.240D-02-0.542D-01 0.512D-01 0.210D+00
 Coeff:     -0.364D+00-0.426D+00 0.158D+01
 Gap=     0.524 Goal=   None    Shift=    0.000
 Gap=     0.428 Goal=   None    Shift=    0.000
 RMSDP=3.76D-06 MaxDP=9.33D-05 DE=-1.80D-07 OVMax= 3.11D-04

 Cycle  16  Pass 1  IDiag  1:
 E= -345.258294904926     Delta-E=       -0.000000045222 Rises=F Damp=F
 DIIS: error= 5.93D-06 at cycle  16 NSaved=  16.
 NSaved=16 IEnMin=16 EnMin= -345.258294904926     IErMin=16 ErrMin= 5.93D-06
 ErrMax= 5.93D-06 EMaxC= 1.00D-01 BMatC= 6.17D-09 BMatP= 2.37D-08
 IDIUse=1 WtCom= 1.00D+00 WtEn= 0.00D+00
 Coeff-Com:  0.737D-05-0.382D-04-0.399D-03-0.198D-04 0.218D-02-0.120D-02
 Coeff-Com: -0.460D-03-0.424D-02 0.164D-01-0.104D-01-0.482D-01 0.100D+00
 Coeff-Com:  0.511D-01-0.196D+00-0.403D+00 0.149D+01
 Coeff:      0.737D-05-0.382D-04-0.399D-03-0.198D-04 0.218D-02-0.120D-02
 Coeff:     -0.460D-03-0.424D-02 0.164D-01-0.104D-01-0.482D-01 0.100D+00
 Coeff:      0.511D-01-0.196D+00-0.403D+00 0.149D+01
 Gap=     0.524 Goal=   None    Shift=    0.000
 Gap=     0.427 Goal=   None    Shift=    0.000
 RMSDP=1.32D-06 MaxDP=4.01D-05 DE=-4.52D-08 OVMax= 6.37D-05

 Cycle  17  Pass 1  IDiag  1:
 E= -345.258294913658     Delta-E=       -0.000000008732 Rises=F Damp=F
 DIIS: error= 2.76D-06 at cycle  17 NSaved=  17.
 NSaved=17 IEnMin=17 EnMin= -345.258294913658     IErMin=17 ErrMin= 2.76D-06
 ErrMax= 2.76D-06 EMaxC= 1.00D-01 BMatC= 1.71D-09 BMatP= 6.17D-09
 IDIUse=1 WtCom= 1.00D+00 WtEn= 0.00D+00
 Coeff-Com: -0.496D-05 0.471D-04 0.211D-03-0.568D-05-0.528D-03 0.575D-03
 Coeff-Com:  0.377D-02-0.441D-02-0.252D-02 0.168D-01-0.722D-02-0.738D-01
 Coeff-Com:  0.907D-01 0.154D+00-0.388D+00-0.182D+00 0.139D+01
 Coeff:     -0.496D-05 0.471D-04 0.211D-03-0.568D-05-0.528D-03 0.575D-03
 Coeff:      0.377D-02-0.441D-02-0.252D-02 0.168D-01-0.722D-02-0.738D-01
 Coeff:      0.907D-01 0.154D+00-0.388D+00-0.182D+00 0.139D+01
 Gap=     0.524 Goal=   None    Shift=    0.000
 Gap=     0.427 Goal=   None    Shift=    0.000
 RMSDP=5.89D-07 MaxDP=2.09D-05 DE=-8.73D-09 OVMax= 3.14D-05

 Cycle  18  Pass 1  IDiag  1:
 E= -345.258294916226     Delta-E=       -0.000000002568 Rises=F Damp=F
 DIIS: error= 1.62D-06 at cycle  18 NSaved=  18.
 NSaved=18 IEnMin=18 EnMin= -345.258294916226     IErMin=18 ErrMin= 1.62D-06
 ErrMax= 1.62D-06 EMaxC= 1.00D-01 BMatC= 6.08D-10 BMatP= 1.71D-09
 IDIUse=1 WtCom= 1.00D+00 WtEn= 0.00D+00
 Coeff-Com: -0.850D-06-0.134D-05 0.483D-04 0.879D-04-0.734D-03 0.425D-03
 Coeff-Com: -0.894D-03 0.229D-02-0.440D-02-0.221D-02 0.168D-01-0.626D-02
 Coeff-Com: -0.400D-01 0.194D-02 0.230D+00-0.305D+00-0.588D+00 0.169D+01
 Coeff:     -0.850D-06-0.134D-05 0.483D-04 0.879D-04-0.734D-03 0.425D-03
 Coeff:     -0.894D-03 0.229D-02-0.440D-02-0.221D-02 0.168D-01-0.626D-02
 Coeff:     -0.400D-01 0.194D-02 0.230D+00-0.305D+00-0.588D+00 0.169D+01
 Gap=     0.524 Goal=   None    Shift=    0.000
 Gap=     0.428 Goal=   None    Shift=    0.000
 RMSDP=4.91D-07 MaxDP=1.09D-05 DE=-2.57D-09 OVMax= 3.18D-05

 Cycle  19  Pass 1  IDiag  1:
 E= -345.258294917309     Delta-E=       -0.000000001083 Rises=F Damp=F
 DIIS: error= 8.06D-07 at cycle  19 NSaved=  19.
 NSaved=19 IEnMin=19 EnMin= -345.258294917309     IErMin=19 ErrMin= 8.06D-07
 ErrMax= 8.06D-07 EMaxC= 1.00D-01 BMatC= 1.93D-10 BMatP= 6.08D-10
 IDIUse=1 WtCom= 1.00D+00 WtEn= 0.00D+00
 Coeff-Com: -0.780D-06 0.371D-05 0.190D-04 0.987D-04-0.119D-03-0.348D-03
 Coeff-Com: -0.145D-05 0.166D-02-0.748D-03-0.225D-02 0.169D-02 0.161D-01
 Coeff-Com: -0.153D-01-0.345D-01 0.393D-01 0.167D+00-0.314D+00-0.522D+00
 Coeff-Com:  0.166D+01
 Coeff:     -0.780D-06 0.371D-05 0.190D-04 0.987D-04-0.119D-03-0.348D-03
 Coeff:     -0.145D-05 0.166D-02-0.748D-03-0.225D-02 0.169D-02 0.161D-01
 Coeff:     -0.153D-01-0.345D-01 0.393D-01 0.167D+00-0.314D+00-0.522D+00
 Coeff:      0.166D+01
 Gap=     0.524 Goal=   None    Shift=    0.000
 Gap=     0.428 Goal=   None    Shift=    0.000
 RMSDP=3.16D-07 MaxDP=8.38D-06 DE=-1.08D-09 OVMax= 2.15D-05

 Cycle  20  Pass 1  IDiag  1:
 E= -345.258294917684     Delta-E=       -0.000000000375 Rises=F Damp=F
 DIIS: error= 3.53D-07 at cycle  20 NSaved=  20.
 NSaved=20 IEnMin=20 EnMin= -345.258294917684     IErMin=20 ErrMin= 3.53D-07
 ErrMax= 3.53D-07 EMaxC= 1.00D-01 BMatC= 4.19D-11 BMatP= 1.93D-10
 IDIUse=1 WtCom= 1.00D+00 WtEn= 0.00D+00
 Coeff-Com: -0.923D-08 0.170D-05-0.529D-05-0.352D-04 0.146D-03 0.438D-04
 Coeff-Com:  0.422D-03-0.143D-02 0.131D-02 0.181D-02-0.553D-02-0.530D-02
 Coeff-Com:  0.190D-01 0.109D-01-0.821D-01 0.348D-01 0.276D+00-0.363D+00
 Coeff-Com: -0.471D+00 0.158D+01
 Coeff:     -0.923D-08 0.170D-05-0.529D-05-0.352D-04 0.146D-03 0.438D-04
 Coeff:      0.422D-03-0.143D-02 0.131D-02 0.181D-02-0.553D-02-0.530D-02
 Coeff:      0.190D-01 0.109D-01-0.821D-01 0.348D-01 0.276D+00-0.363D+00
 Coeff:     -0.471D+00 0.158D+01
 Gap=     0.524 Goal=   None    Shift=    0.000
 Gap=     0.428 Goal=   None    Shift=    0.000
 RMSDP=1.44D-07 MaxDP=3.60D-06 DE=-3.75D-10 OVMax= 7.95D-06

 Cycle  21  Pass 1  IDiag  1:
 E= -345.258294917766     Delta-E=       -0.000000000082 Rises=F Damp=F
 DIIS: error= 1.30D-07 at cycle  21 NSaved=  20.
 NSaved=20 IEnMin=20 EnMin= -345.258294917766     IErMin=20 ErrMin= 1.30D-07
 ErrMax= 1.30D-07 EMaxC= 1.00D-01 BMatC= 5.20D-12 BMatP= 4.19D-11
 IDIUse=1 WtCom= 1.00D+00 WtEn= 0.00D+00
 Coeff-Com:  0.128D-06 0.183D-05-0.753D-05-0.242D-04 0.628D-04-0.485D-05
 Coeff-Com: -0.891D-04-0.132D-03 0.315D-03 0.434D-03-0.280D-02 0.158D-02
 Coeff-Com:  0.292D-02 0.366D-02-0.309D-01 0.216D-01 0.121D+00-0.175D+00
 Coeff-Com: -0.303D+00 0.136D+01
 Coeff:      0.128D-06 0.183D-05-0.753D-05-0.242D-04 0.628D-04-0.485D-05
 Coeff:     -0.891D-04-0.132D-03 0.315D-03 0.434D-03-0.280D-02 0.158D-02
 Coeff:      0.292D-02 0.366D-02-0.309D-01 0.216D-01 0.121D+00-0.175D+00
 Coeff:     -0.303D+00 0.136D+01
 Gap=     0.524 Goal=   None    Shift=    0.000
 Gap=     0.428 Goal=   None    Shift=    0.000
 RMSDP=4.03D-08 MaxDP=1.08D-06 DE=-8.23D-11 OVMax= 2.37D-06

 Cycle  22  Pass 1  IDiag  1:
 E= -345.258294917774     Delta-E=       -0.000000000008 Rises=F Damp=F
 DIIS: error= 5.01D-08 at cycle  22 NSaved=  20.
 NSaved=20 IEnMin=20 EnMin= -345.258294917774     IErMin=20 ErrMin= 5.01D-08
 ErrMax= 5.01D-08 EMaxC= 1.00D-01 BMatC= 9.76D-13 BMatP= 5.20D-12
 IDIUse=1 WtCom= 1.00D+00 WtEn= 0.00D+00
 Coeff-Com:  0.140D-05 0.630D-05-0.203D-04-0.130D-04-0.480D-04 0.213D-03
 Coeff-Com: -0.193D-03-0.255D-03 0.779D-03 0.892D-03-0.264D-02-0.185D-02
 Coeff-Com:  0.120D-01-0.508D-02-0.379D-01 0.454D-01 0.737D-01-0.202D+00
 Coeff-Com: -0.850D-01 0.120D+01
 Coeff:      0.140D-05 0.630D-05-0.203D-04-0.130D-04-0.480D-04 0.213D-03
 Coeff:     -0.193D-03-0.255D-03 0.779D-03 0.892D-03-0.264D-02-0.185D-02
 Coeff:      0.120D-01-0.508D-02-0.379D-01 0.454D-01 0.737D-01-0.202D+00
 Coeff:     -0.850D-01 0.120D+01
 Gap=     0.524 Goal=   None    Shift=    0.000
 Gap=     0.428 Goal=   None    Shift=    0.000
 RMSDP=1.42D-08 MaxDP=3.60D-07 DE=-7.73D-12 OVMax= 1.00D-06

 Cycle  23  Pass 1  IDiag  1:
 E= -345.258294917775     Delta-E=       -0.000000000001 Rises=F Damp=F
 DIIS: error= 4.19D-08 at cycle  23 NSaved=  20.
 NSaved=20 IEnMin=20 EnMin= -345.258294917775     IErMin=20 ErrMin= 4.19D-08
 ErrMax= 4.19D-08 EMaxC= 1.00D-01 BMatC= 2.98D-13 BMatP= 9.76D-13
 IDIUse=1 WtCom= 1.00D+00 WtEn= 0.00D+00
 Coeff-Com:  0.300D-06 0.327D-05-0.861D-05 0.227D-05-0.269D-05 0.365D-04
 Coeff-Com: -0.643D-04-0.108D-03 0.507D-03-0.375D-03-0.423D-03-0.615D-03
 Coeff-Com:  0.495D-02-0.221D-02-0.230D-01 0.223D-01 0.839D-01-0.263D+00
 Coeff-Com: -0.154D+00 0.133D+01
 Coeff:      0.300D-06 0.327D-05-0.861D-05 0.227D-05-0.269D-05 0.365D-04
 Coeff:     -0.643D-04-0.108D-03 0.507D-03-0.375D-03-0.423D-03-0.615D-03
 Coeff:      0.495D-02-0.221D-02-0.230D-01 0.223D-01 0.839D-01-0.263D+00
 Coeff:     -0.154D+00 0.133D+01
 Gap=     0.524 Goal=   None    Shift=    0.000
 Gap=     0.428 Goal=   None    Shift=    0.000
 RMSDP=7.10D-09 MaxDP=3.04D-07 DE=-6.82D-13 OVMax= 6.72D-07

 SCF Done:  E(UHF) =  -345.258294918     A.U. after   23 cycles
             Convg  =    0.7097D-08             -V/T =  2.0014
 <Sx>= 0.0000 <Sy>= 0.0000 <Sz>= 0.5000 <S**2>= 0.9941 S= 0.6154
 <L.S>= 0.000000000000E+00
 KE= 3.447816826344D+02 PE=-1.420567352761D+03 EE= 4.251175840612D+02
 Annihilation of the first spin contaminant:
 S**2 before annihilation     0.9941,   after     0.7753
 Leave Link  502 at Thu Apr 26 13:16:04 2018, MaxMem=  671088640 cpu:     383.5
 (Enter /shared/apps/gaussian/G09_LINUX_LINDA/g09/l801.exe)
 Range of M.O.s used for correlation:     1   127
 NBasis=   127 NAE=    29 NBE=    28 NFC=     0 NFV=     0
 NROrb=    127 NOA=    29 NOB=    28 NVA=    98 NVB=    99
 Leave Link  801 at Thu Apr 26 13:16:04 2018, MaxMem=  671088640 cpu:       0.4
 (Enter /shared/apps/gaussian/G09_LINUX_LINDA/g09/l1101.exe)
 Using compressed storage, NAtomX=    18.
 Will process  19 centers per pass.
 Leave Link 1101 at Thu Apr 26 13:16:05 2018, MaxMem=  671088640 cpu:       7.7
 (Enter /shared/apps/gaussian/G09_LINUX_LINDA/g09/l1102.exe)
 Symmetrizing basis deriv contribution to polar:
 IMax=3 JMax=2 DiffMx= 0.00D+00
 Leave Link 1102 at Thu Apr 26 13:16:06 2018, MaxMem=  671088640 cpu:       1.2
 (Enter /shared/apps/gaussian/G09_LINUX_LINDA/g09/l1110.exe)
 Forming Gx(P) for the SCF density, NAtomX=    18.
 Integral derivatives from FoFDir/FoFCou, PRISM(SPDF).
 Do as many integral derivatives as possible in FoFDir.
 G2DrvN: MDV=     671088392.
 G2DrvN: will do    19 centers at a time, making    1 passes doing MaxLOS=2.
 Calling FoFCou, ICntrl=  3107 FMM=F I1Cent=   0 AccDes= 0.00D+00.
 FoFCou: FMM=F IPFlag=           0 FMFlag=      100000 FMFlg1=           0
         NFxFlg=           0 DoJE=F BraDBF=F KetDBF=F FulRan=T
         Omega=  0.000000  0.000000  1.000000  0.000000  0.000000 ICntrl=    3107 IOpCl=  1
         NMat0=    1 NMatS0=    1 NMatT0=    0 NMatD0=    1 NMtDS0=    0 NMtDT0=    0
         I1Cent=           0 NGrid=           0.
 Symmetry not used in FoFCou.
 FoFDir/FoFCou used for L=0 through L=2.
 End of G2Drv Frequency-dependent properties file   721 does not exist.
 End of G2Drv Frequency-dependent properties file   722 does not exist.
 Leave Link 1110 at Thu Apr 26 13:16:09 2018, MaxMem=  671088640 cpu:      30.6
 (Enter /shared/apps/gaussian/G09_LINUX_LINDA/g09/l1002.exe)
 Minotr:  UHF open shell wavefunction.
          IDoAtm=111111111111111111
          Direct CPHF calculation.
          Differentiating once with respect to nuclear coordinates.
          Requested convergence is 1.0D-06 RMS, and 1.0D-05 maximum.
          Secondary convergence is 1.0D-12 RMS, and 1.0D-12 maximum.
          NewPWx=T KeepS1=F KeepF1=F KeepIn=T MapXYZ=F SortEE=F KeepMc=T.
          MDV=     671088456 using IRadAn=       2.
          Keep R1 and R2 ints in memory in canonical form, NReq=66894031.
 Symmetry not used in FoFDir.
 MinBra= 0 MaxBra= 2 Meth= 1.
 IRaf=       0 NMat=   1 IRICut=       1 DoRegI=T DoRafI=F ISym2E= 0 JSym2E=0.
          Solving linear equations simultaneously, MaxMat=       0.
          There are    57 degrees of freedom in the 1st order CPHF.  IDoFFX=5.
     51 vectors produced by pass  0 Test12= 9.85D-11 1.75D-07 XBig12= 1.11D-01 1.47D-01.
 AX will form    51 AO Fock derivatives at one time.
     51 vectors produced by pass  1 Test12= 9.85D-11 1.75D-07 XBig12= 8.91D-03 4.84D-02.
     51 vectors produced by pass  2 Test12= 9.85D-11 1.75D-07 XBig12= 5.76D-04 4.89D-03.
     51 vectors produced by pass  3 Test12= 9.85D-11 1.75D-07 XBig12= 1.67D-05 9.75D-04.
     51 vectors produced by pass  4 Test12= 9.85D-11 1.75D-07 XBig12= 3.37D-07 7.26D-05.
     32 vectors produced by pass  5 Test12= 9.85D-11 1.75D-07 XBig12= 4.03D-09 8.47D-06.
      7 vectors produced by pass  6 Test12= 9.85D-11 1.75D-07 XBig12= 5.43D-11 9.48D-07.
 Inverted reduced A of dimension   294 with in-core refinement.
 End of Minotr Frequency-dependent properties file   721 does not exist.
 End of Minotr Frequency-dependent properties file   722 does not exist.
 Leave Link 1002 at Thu Apr 26 13:16:26 2018, MaxMem=  671088640 cpu:     170.6
 (Enter /shared/apps/gaussian/G09_LINUX_LINDA/g09/l601.exe)
 Copying SCF densities to generalized density rwf, IOpCl= 1 IROHF=0.

 **********************************************************************

            Population analysis using the SCF density.

 **********************************************************************

 Orbital symmetries:
 Alpha Orbitals:
       Occupied  (A) (A) (A) (A) (A) (A) (A) (A) (A) (A) (A) (A)
                 (A) (A) (A) (A) (A) (A) (A) (A) (A) (A) (A) (A)
                 (A) (A) (A) (A) (A)
       Virtual   (A) (A) (A) (A) (A) (A) (A) (A) (A) (A) (A) (A)
                 (A) (A) (A) (A) (A) (A) (A) (A) (A) (A) (A) (A)
                 (A) (A) (A) (A) (A) (A) (A) (A) (A) (A) (A) (A)
                 (A) (A) (A) (A) (A) (A) (A) (A) (A) (A) (A) (A)
                 (A) (A) (A) (A) (A) (A) (A) (A) (A) (A) (A) (A)
                 (A) (A) (A) (A) (A) (A) (A) (A) (A) (A) (A) (A)
                 (A) (A) (A) (A) (A) (A) (A) (A) (A) (A) (A) (A)
                 (A) (A) (A) (A) (A) (A) (A) (A) (A) (A) (A) (A)
                 (A) (A)
 Beta  Orbitals:
       Occupied  (A) (A) (A) (A) (A) (A) (A) (A) (A) (A) (A) (A)
                 (A) (A) (A) (A) (A) (A) (A) (A) (A) (A) (A) (A)
                 (A) (A) (A) (A)
       Virtual   (A) (A) (A) (A) (A) (A) (A) (A) (A) (A) (A) (A)
                 (A) (A) (A) (A) (A) (A) (A) (A) (A) (A) (A) (A)
                 (A) (A) (A) (A) (A) (A) (A) (A) (A) (A) (A) (A)
                 (A) (A) (A) (A) (A) (A) (A) (A) (A) (A) (A) (A)
                 (A) (A) (A) (A) (A) (A) (A) (A) (A) (A) (A) (A)
                 (A) (A) (A) (A) (A) (A) (A) (A) (A) (A) (A) (A)
                 (A) (A) (A) (A) (A) (A) (A) (A) (A) (A) (A) (A)
                 (A) (A) (A) (A) (A) (A) (A) (A) (A) (A) (A) (A)
                 (A) (A) (A)
 The electronic state is 2-A.
 Alpha  occ. eigenvalues --  -20.64941 -20.62987 -11.25054 -11.24336 -11.22569
 Alpha  occ. eigenvalues --  -11.22517 -11.22482  -1.51697  -1.18444  -1.11395
 Alpha  occ. eigenvalues --   -1.01317  -0.95140  -0.88258  -0.74800  -0.72041
 Alpha  occ. eigenvalues --   -0.71450  -0.64696  -0.62777  -0.61382  -0.61028
 Alpha  occ. eigenvalues --   -0.55729  -0.54981  -0.53467  -0.51799  -0.51468
 Alpha  occ. eigenvalues --   -0.48697  -0.48526  -0.44251  -0.33648
 Alpha virt. eigenvalues --    0.18778   0.21391   0.24540   0.26532   0.26816
 Alpha virt. eigenvalues --    0.29489   0.31403   0.31565   0.32986   0.34288
 Alpha virt. eigenvalues --    0.35664   0.38026   0.38785   0.42532   0.45593
 Alpha virt. eigenvalues --    0.50000   0.59347   0.67727   0.70489   0.74417
 Alpha virt. eigenvalues --    0.75678   0.77517   0.79638   0.83559   0.84905
 Alpha virt. eigenvalues --    0.92971   0.94190   0.95952   0.96772   0.99071
 Alpha virt. eigenvalues --    1.02421   1.04909   1.07294   1.07654   1.11913
 Alpha virt. eigenvalues --    1.13368   1.14129   1.16757   1.17234   1.17932
 Alpha virt. eigenvalues --    1.19803   1.21356   1.21531   1.24090   1.24944
 Alpha virt. eigenvalues --    1.27393   1.29992   1.31386   1.34844   1.41643
 Alpha virt. eigenvalues --    1.45331   1.52948   1.56573   1.60599   1.65221
 Alpha virt. eigenvalues --    1.68872   1.72154   1.77780   1.80160   1.80758
 Alpha virt. eigenvalues --    1.87250   1.93918   2.04665   2.10780   2.13672
 Alpha virt. eigenvalues --    2.14149   2.17248   2.18982   2.20685   2.32344
 Alpha virt. eigenvalues --    2.33870   2.35644   2.42776   2.45653   2.49610
 Alpha virt. eigenvalues --    2.54848   2.56728   2.62433   2.68886   2.74239
 Alpha virt. eigenvalues --    2.74911   2.76204   2.78082   2.82504   2.85380
 Alpha virt. eigenvalues --    2.86634   2.89595   3.01586   3.23543   3.29250
 Alpha virt. eigenvalues --    3.39867   3.96115   4.17732   4.52791   4.65574
 Alpha virt. eigenvalues --    4.70990   4.75671   4.96456
  Beta  occ. eigenvalues --  -20.62830 -20.62005 -11.23796 -11.23619 -11.22794
  Beta  occ. eigenvalues --  -11.22744 -11.22663  -1.47764  -1.12580  -1.09930
  Beta  occ. eigenvalues --   -0.99777  -0.95186  -0.86332  -0.72299  -0.71172
  Beta  occ. eigenvalues --   -0.64522  -0.63495  -0.61185  -0.59617  -0.58752
  Beta  occ. eigenvalues --   -0.55143  -0.54457  -0.53386  -0.51402  -0.48393
  Beta  occ. eigenvalues --   -0.46284  -0.45656  -0.35390
  Beta virt. eigenvalues --    0.07361   0.20278   0.21296   0.24883   0.26702
  Beta virt. eigenvalues --    0.26855   0.29636   0.31831   0.32829   0.33382
  Beta virt. eigenvalues --    0.35870   0.36237   0.38647   0.39869   0.43130
  Beta virt. eigenvalues --    0.48839   0.50758   0.59597   0.67886   0.70926
  Beta virt. eigenvalues --    0.74200   0.76736   0.78779   0.79857   0.84419
  Beta virt. eigenvalues --    0.86618   0.91608   0.95955   0.97314   0.99222
  Beta virt. eigenvalues --    0.99811   1.03780   1.05802   1.07696   1.08435
  Beta virt. eigenvalues --    1.12244   1.13534   1.14207   1.16835   1.17467
  Beta virt. eigenvalues --    1.19070   1.20808   1.21821   1.22190   1.24333
  Beta virt. eigenvalues --    1.25305   1.27966   1.31775   1.32381   1.35677
  Beta virt. eigenvalues --    1.42236   1.45882   1.54597   1.57798   1.61808
  Beta virt. eigenvalues --    1.68168   1.70442   1.73783   1.78025   1.80535
  Beta virt. eigenvalues --    1.81161   1.89652   1.95886   2.06568   2.11499
  Beta virt. eigenvalues --    2.14531   2.15126   2.19037   2.19938   2.22681
  Beta virt. eigenvalues --    2.33525   2.35219   2.37187   2.42931   2.46276
  Beta virt. eigenvalues --    2.50747   2.55561   2.56785   2.62369   2.69101
  Beta virt. eigenvalues --    2.75433   2.75779   2.76633   2.80664   2.83234
  Beta virt. eigenvalues --    2.86137   2.87375   2.91259   3.02280   3.23818
  Beta virt. eigenvalues --    3.30280   3.40048   3.96815   4.19563   4.53270
  Beta virt. eigenvalues --    4.65678   4.70851   4.76572   4.96986
          Condensed to atoms (all electrons):
              1          2          3          4          5          6
     1  O    8.300354   0.059399  -0.003758   0.000587  -0.058064  -0.000001
     2  O    0.059399   8.141039   0.005193  -0.000790  -0.002247  -0.000010
     3  C   -0.003758   0.005193   5.015656   0.610574   0.357494  -0.043873
     4  C    0.000587  -0.000790   0.610574   4.979362  -0.050099   0.346006
     5  C   -0.058064  -0.002247   0.357494  -0.050099   5.305683   0.003349
     6  C   -0.000001  -0.000010  -0.043873   0.346006   0.003349   5.102158
     7  C    0.000000  -0.000020  -0.044422   0.344041  -0.007313  -0.066488
     8  H   -0.027893   0.254367   0.003289   0.001877  -0.001254  -0.000008
     9  H   -0.000024   0.000243   0.395862  -0.039866  -0.038784  -0.005221
    10  H    0.028822  -0.024272  -0.037919  -0.003549   0.242068  -0.000052
    11  H    0.000095   0.000266  -0.033190   0.002330   0.384608  -0.000076
    12  H   -0.000260   0.000311  -0.037398  -0.000010   0.385602   0.000030
    13  H    0.000000  -0.000002  -0.000834  -0.040760   0.000142   0.395230
    14  H    0.000000   0.000000  -0.000709  -0.042512  -0.000097   0.390225
    15  H    0.000000   0.000005   0.000558  -0.042133  -0.000085   0.388195
    16  H    0.000155  -0.000008  -0.002934  -0.035281  -0.000747   0.003610
    17  H   -0.000011   0.000010   0.001060  -0.041850   0.000168  -0.002450
    18  H    0.000001   0.000000  -0.000362  -0.041231   0.000237  -0.001322
              7          8          9         10         11         12
     1  O    0.000000  -0.027893  -0.000024   0.028822   0.000095  -0.000260
     2  O   -0.000020   0.254367   0.000243  -0.024272   0.000266   0.000311
     3  C   -0.044422   0.003289   0.395862  -0.037919  -0.033190  -0.037398
     4  C    0.344041   0.001877  -0.039866  -0.003549   0.002330  -0.000010
     5  C   -0.007313  -0.001254  -0.038784   0.242068   0.384608   0.385602
     6  C   -0.066488  -0.000008  -0.005221  -0.000052  -0.000076   0.000030
     7  C    5.109062  -0.000035   0.003473   0.000287   0.000121  -0.000490
     8  H   -0.000035   0.313848   0.000024  -0.001239   0.000017   0.000046
     9  H    0.003473   0.000024   0.492451   0.000402  -0.003040   0.002699
    10  H    0.000287  -0.001239   0.000402   0.510636  -0.021719  -0.020560
    11  H    0.000121   0.000017  -0.003040  -0.021719   0.492609  -0.023153
    12  H   -0.000490   0.000046   0.002699  -0.020560  -0.023153   0.497061
    13  H    0.003658   0.000001   0.003024  -0.000002  -0.000008   0.000005
    14  H   -0.000646   0.000003   0.000116  -0.000004   0.000005   0.000007
    15  H   -0.001663  -0.000055   0.000143   0.000019  -0.000001  -0.000004
    16  H    0.395168  -0.000006   0.000035  -0.000159   0.000061   0.000391
    17  H    0.391505  -0.000052  -0.000100   0.000091  -0.000007  -0.000078
    18  H    0.389427   0.000003  -0.000112  -0.000039   0.000010   0.000073
             13         14         15         16         17         18
     1  O    0.000000   0.000000   0.000000   0.000155  -0.000011   0.000001
     2  O   -0.000002   0.000000   0.000005  -0.000008   0.000010   0.000000
     3  C   -0.000834  -0.000709   0.000558  -0.002934   0.001060  -0.000362
     4  C   -0.040760  -0.042512  -0.042133  -0.035281  -0.041850  -0.041231
     5  C    0.000142  -0.000097  -0.000085  -0.000747   0.000168   0.000237
     6  C    0.395230   0.390225   0.388195   0.003610  -0.002450  -0.001322
     7  C    0.003658  -0.000646  -0.001663   0.395168   0.391505   0.389427
     8  H    0.000001   0.000003  -0.000055  -0.000006  -0.000052   0.000003
     9  H    0.003024   0.000116   0.000143   0.000035  -0.000100  -0.000112
    10  H   -0.000002  -0.000004   0.000019  -0.000159   0.000091  -0.000039
    11  H   -0.000008   0.000005  -0.000001   0.000061  -0.000007   0.000010
    12  H    0.000005   0.000007  -0.000004   0.000391  -0.000078   0.000073
    13  H    0.512132  -0.024231  -0.025010  -0.000091  -0.000025  -0.000065
    14  H   -0.024231   0.538699  -0.034708  -0.000036  -0.000428   0.002518
    15  H   -0.025010  -0.034708   0.546879  -0.000070   0.002738  -0.000355
    16  H   -0.000091  -0.000036  -0.000070   0.509631  -0.026125  -0.024467
    17  H   -0.000025  -0.000428   0.002738  -0.026125   0.539169  -0.033056
    18  H   -0.000065   0.002518  -0.000355  -0.024467  -0.033056   0.533468
 Mulliken atomic charges:
              1
     1  O   -0.299401
     2  O   -0.433484
     3  C   -0.184288
     4  C    0.053303
     5  C   -0.520662
     6  C   -0.509301
     7  C   -0.515665
     8  H    0.457067
     9  H    0.188673
    10  H    0.327190
    11  H    0.201071
    12  H    0.195728
    13  H    0.176837
    14  H    0.171799
    15  H    0.165547
    16  H    0.180874
    17  H    0.169441
    18  H    0.175271
 Sum of Mulliken atomic charges =   0.00000
 Mulliken charges with hydrogens summed into heavy atoms:
              1
     1  O    0.027789
     2  O    0.023583
     3  C    0.004385
     4  C    0.053303
     5  C   -0.123863
     6  C    0.004881
     7  C    0.009922
 Sum of Mulliken charges with hydrogens summed into heavy atoms =   0.00000
          Atomic-Atomic Spin Densities.
              1          2          3          4          5          6
     1  O    0.805102  -0.057242   0.007274   0.000870  -0.069880   0.000003
     2  O   -0.057242   0.038281  -0.002773  -0.000770   0.008896  -0.000002
     3  C    0.007274  -0.002773  -0.712930   0.026809  -0.033532  -0.000232
     4  C    0.000870  -0.000770   0.026809   0.820156  -0.012312  -0.024045
     5  C   -0.069880   0.008896  -0.033532  -0.012312   0.757463   0.000036
     6  C    0.000003  -0.000002  -0.000232  -0.024045   0.000036  -0.089956
     7  C   -0.000029   0.000016   0.000327  -0.027195   0.000306   0.002169
     8  H   -0.000017  -0.000624  -0.001320   0.000827  -0.000293  -0.000024
     9  H   -0.000065   0.000074   0.007423  -0.002050  -0.001684   0.000186
    10  H   -0.073580   0.018378   0.019648  -0.000191   0.063162   0.000020
    11  H    0.002525  -0.000382   0.004602  -0.000115  -0.022945   0.000008
    12  H    0.002073  -0.000168   0.003428  -0.000486  -0.019453   0.000005
    13  H    0.000000   0.000000   0.000918  -0.002156  -0.000003   0.003442
    14  H    0.000000   0.000000  -0.000191  -0.012537   0.000025   0.007637
    15  H   -0.000002   0.000008   0.000299  -0.012839   0.000015   0.006749
    16  H   -0.000007   0.000002   0.000808  -0.002147  -0.000440  -0.000078
    17  H   -0.000014   0.000007   0.000126  -0.011045   0.000095   0.000404
    18  H    0.000002   0.000000  -0.000099  -0.012693   0.000144   0.000564
              7          8          9         10         11         12
     1  O   -0.000029  -0.000017  -0.000065  -0.073580   0.002525   0.002073
     2  O    0.000016  -0.000624   0.000074   0.018378  -0.000382  -0.000168
     3  C    0.000327  -0.001320   0.007423   0.019648   0.004602   0.003428
     4  C   -0.027195   0.000827  -0.002050  -0.000191  -0.000115  -0.000486
     5  C    0.000306  -0.000293  -0.001684   0.063162  -0.022945  -0.019453
     6  C    0.002169  -0.000024   0.000186   0.000020   0.000008   0.000005
     7  C   -0.084707  -0.000040   0.000044  -0.000090  -0.000020   0.000332
     8  H   -0.000040  -0.002737  -0.000023   0.001317  -0.000004  -0.000016
     9  H    0.000044  -0.000023   0.040872  -0.000111  -0.000232  -0.000045
    10  H   -0.000090   0.001317  -0.000111  -0.265286   0.008386   0.008944
    11  H   -0.000020  -0.000004  -0.000232   0.008386  -0.034950   0.002671
    12  H    0.000332  -0.000016  -0.000045   0.008944   0.002671  -0.038416
    13  H   -0.000060   0.000000  -0.000070   0.000000   0.000001   0.000000
    14  H    0.000441   0.000001  -0.000035   0.000001   0.000001   0.000001
    15  H    0.000582  -0.000025   0.000045  -0.000003  -0.000001  -0.000001
    16  H    0.003469  -0.000002   0.000005   0.000052   0.000005   0.000058
    17  H    0.007265  -0.000031   0.000003  -0.000006  -0.000002  -0.000030
    18  H    0.007149   0.000002  -0.000011   0.000003   0.000005   0.000037
             13         14         15         16         17         18
     1  O    0.000000   0.000000  -0.000002  -0.000007  -0.000014   0.000002
     2  O    0.000000   0.000000   0.000008   0.000002   0.000007   0.000000
     3  C    0.000918  -0.000191   0.000299   0.000808   0.000126  -0.000099
     4  C   -0.002156  -0.012537  -0.012839  -0.002147  -0.011045  -0.012693
     5  C   -0.000003   0.000025   0.000015  -0.000440   0.000095   0.000144
     6  C    0.003442   0.007637   0.006749  -0.000078   0.000404   0.000564
     7  C   -0.000060   0.000441   0.000582   0.003469   0.007265   0.007149
     8  H    0.000000   0.000001  -0.000025  -0.000002  -0.000031   0.000002
     9  H   -0.000070  -0.000035   0.000045   0.000005   0.000003  -0.000011
    10  H    0.000000   0.000001  -0.000003   0.000052  -0.000006   0.000003
    11  H    0.000001   0.000001  -0.000001   0.000005  -0.000002   0.000005
    12  H    0.000000   0.000001  -0.000001   0.000058  -0.000030   0.000037
    13  H    0.003255  -0.000645  -0.000731   0.000000  -0.000003  -0.000002
    14  H   -0.000645   0.036584  -0.007916  -0.000006  -0.000653   0.001576
    15  H   -0.000731  -0.007916   0.038139   0.000006   0.001589  -0.000590
    16  H    0.000000  -0.000006   0.000006   0.003572  -0.000341  -0.001028
    17  H   -0.000003  -0.000653   0.001589  -0.000341   0.030422  -0.006933
    18  H   -0.000002   0.001576  -0.000590  -0.001028  -0.006933   0.037262
 Mulliken atomic spin densities:
              1
     1  O    0.617011
     2  O    0.003700
     3  C   -0.679414
     4  C    0.728083
     5  C    0.669602
     6  C   -0.093113
     7  C   -0.090040
     8  H   -0.003008
     9  H    0.044327
    10  H   -0.219358
    11  H   -0.040447
    12  H   -0.041067
    13  H    0.003947
    14  H    0.024283
    15  H    0.025325
    16  H    0.003928
    17  H    0.020853
    18  H    0.025386
 Sum of Mulliken atomic spin densities =   1.00000
 APT atomic charges:
              1
     1  O   -0.326694
     2  O   -0.391508
     3  C   -0.504731
     4  C    0.227079
     5  C   -1.158995
     6  C   -1.441448
     7  C   -1.329339
     8  H    0.419118
     9  H    0.442373
    10  H    0.398592
    11  H    0.565782
    12  H    0.427439
    13  H    0.396481
    14  H    0.572948
    15  H    0.406146
    16  H    0.309457
    17  H    0.418751
    18  H    0.568550
 Sum of APT charges=   0.00000
 APT Atomic charges with hydrogens summed into heavy atoms:
              1
     1  O    0.071898
     2  O    0.027610
     3  C   -0.062358
     4  C    0.227079
     5  C   -0.165775
     6  C   -0.065873
     7  C   -0.032581
     8  H    0.000000
     9  H    0.000000
    10  H    0.000000
    11  H    0.000000
    12  H    0.000000
    13  H    0.000000
    14  H    0.000000
    15  H    0.000000
    16  H    0.000000
    17  H    0.000000
    18  H    0.000000
 Sum of APT charges=   0.00000
 Electronic spatial extent (au):  <R**2>=           1104.6563
 Charge=              0.0000 electrons
 Dipole moment (field-independent basis, Debye):
    X=             -3.0476    Y=             -0.1266    Z=              0.3477  Tot=              3.0700
 Quadrupole moment (field-independent basis, Debye-Ang):
   XX=            -52.9978   YY=            -42.4813   ZZ=            -42.7107
   XY=             -2.2580   XZ=             -1.3776   YZ=              1.6567
 Traceless Quadrupole moment (field-independent basis, Debye-Ang):
   XX=             -6.9346   YY=              3.5820   ZZ=              3.3525
   XY=             -2.2580   XZ=             -1.3776   YZ=              1.6567
 Octapole moment (field-independent basis, Debye-Ang**2):
  XXX=            -12.3207  YYY=              5.0470  ZZZ=              2.1598  XYY=              6.6109
  XXY=             -3.8826  XXZ=             -0.2941  XZZ=              8.8053  YZZ=              5.1031
  YYZ=              4.4805  XYZ=              4.7130
 Hexadecapole moment (field-independent basis, Debye-Ang**3):
 XXXX=           -964.1514 YYYY=           -278.9790 ZZZZ=           -213.5300 XXXY=             -0.5590
 XXXZ=             -1.7739 YYYX=              7.1751 YYYZ=              4.1479 ZZZX=              4.3402
 ZZZY=              4.5601 XXYY=           -204.8683 XXZZ=           -187.2138 YYZZ=            -79.7127
 XXYZ=              4.7404 YYXZ=              4.8151 ZZXY=              1.5507
 N-N= 3.054097911480D+02 E-N=-2.121522285874D+03  KE= 5.157378715464D+02
  Exact polarizability:   0.000   0.000   0.000   0.000   0.000   0.000
 Approx polarizability:  60.489  -1.870  52.240  -2.340   1.431  51.158
                          Isotropic Fermi Contact Couplings
        Atom                 a.u.       MegaHertz       Gauss      10(-4) cm-1
     1  O(17)              0.11652     -70.63294     -25.20359     -23.56061
     2  O(17)              0.02486     -15.07199      -5.37806      -5.02747
     3  C(13)             -0.12253    -137.75178     -49.15326     -45.94905
     4  C(13)              0.12964     145.73541      52.00202      48.61210
     5  C(13)              0.17128     192.55312      68.70774      64.22881
     6  C(13)             -0.03096     -34.80944     -12.42087     -11.61118
     7  C(13)             -0.02969     -33.38093     -11.91115     -11.13468
     8  H(1)              -0.00150      -6.68336      -2.38479      -2.22933
     9  H(1)               0.01369      61.18259      21.83147      20.40832
    10  H(1)              -0.08769    -391.95088    -139.85781    -130.74074
    11  H(1)              -0.01376     -61.52481     -21.95358     -20.52247
    12  H(1)              -0.01362     -60.86832     -21.71933     -20.30349
    13  H(1)               0.00134       6.00799       2.14380       2.00405
    14  H(1)               0.01084      48.45009      17.28820      16.16121
    15  H(1)               0.01123      50.21869      17.91928      16.75115
    16  H(1)               0.00138       6.15286       2.19549       2.05237
    17  H(1)               0.00934      41.76253      14.90191      13.93048
    18  H(1)               0.01135      50.71592      18.09670      16.91701
 --------------------------------------------------------
       Center         ----  Spin Dipole Couplings  ----
                      3XX-RR        3YY-RR        3ZZ-RR
 --------------------------------------------------------
     1   Atom        0.526344     -0.741428      0.215083
     2   Atom        0.123172     -0.137990      0.014818
     3   Atom        0.016460     -0.040628      0.024168
     4   Atom       -0.008790      0.056046     -0.047257
     5   Atom        0.192738     -0.126292     -0.066446
     6   Atom       -0.003347     -0.000559      0.003906
     7   Atom        0.004508      0.001284     -0.005792
     8   Atom        0.003078      0.007923     -0.011001
     9   Atom        0.023468     -0.009845     -0.013623
    10   Atom        0.052619     -0.041264     -0.011355
    11   Atom       -0.005522     -0.028984      0.034506
    12   Atom       -0.016132      0.018223     -0.002091
    13   Atom       -0.001862      0.002796     -0.000934
    14   Atom        0.003637     -0.000743     -0.002894
    15   Atom        0.001724      0.003949     -0.005673
    16   Atom       -0.000997      0.000011      0.000986
    17   Atom       -0.000734     -0.004602      0.005337
    18   Atom       -0.001705      0.000346      0.001359
 --------------------------------------------------------
                        XY            XZ            YZ
 --------------------------------------------------------
     1   Atom        0.912552      1.645015      0.794427
     2   Atom        0.215281      0.152461      0.238724
     3   Atom       -0.258851     -0.225541     -0.224761
     4   Atom        0.308469      0.275640      0.290325
     5   Atom        0.284069      0.321642      0.193722
     6   Atom        0.005736      0.001721     -0.002496
     7   Atom       -0.002780      0.003244      0.003427
     8   Atom       -0.013313     -0.006659      0.009993
     9   Atom       -0.016630     -0.007973      0.019134
    10   Atom        0.125856      0.143066      0.102864
    11   Atom        0.007656     -0.019932      0.021038
    12   Atom        0.023534      0.001678     -0.026503
    13   Atom       -0.001863      0.003998     -0.003759
    14   Atom       -0.006493      0.002021     -0.001046
    15   Atom       -0.005921     -0.000526     -0.000596
    16   Atom        0.001633     -0.000980     -0.004219
    17   Atom        0.000381     -0.003018     -0.004081
    18   Atom        0.002008     -0.004095     -0.004805
 --------------------------------------------------------


 ---------------------------------------------------------------------------------
              Anisotropic Spin Dipole Couplings in Principal Axis System
 ---------------------------------------------------------------------------------

       Atom             a.u.   MegaHertz   Gauss  10(-4) cm-1        Axes

              Baa    -1.2883    93.224    33.265    31.096  0.7158 -0.2438 -0.6544
     1 O(17)  Bbb    -1.1893    86.056    30.707    28.705 -0.0770  0.9038 -0.4210
              Bcc     2.4776  -179.280   -63.971   -59.801  0.6941  0.3518  0.6281
 
              Baa    -0.3332    24.110     8.603     8.042 -0.2405  0.8464 -0.4752
     2 O(17)  Bbb    -0.0794     5.747     2.051     1.917  0.7075 -0.1823 -0.6828
              Bcc     0.4126   -29.857   -10.654    -9.959  0.6645  0.5004  0.5550
 
              Baa    -0.4751   -63.754   -22.749   -21.266  0.5726  0.6191  0.5374
     3 C(13)  Bbb     0.2188    29.366    10.478     9.795  0.0175 -0.6646  0.7470
              Bcc     0.2563    34.389    12.271    11.471  0.8196 -0.4183 -0.3914
 
              Baa    -0.3044   -40.852   -14.577   -13.627 -0.6505 -0.0535  0.7576
     4 C(13)  Bbb    -0.2821   -37.855   -13.508   -12.627 -0.5013  0.7796 -0.3753
              Bcc     0.5865    78.708    28.085    26.254  0.5705  0.6240  0.5340
 
              Baa    -0.2944   -39.503   -14.096   -13.177 -0.2869  0.8908 -0.3523
     5 C(13)  Bbb    -0.2834   -38.034   -13.571   -12.687 -0.6031  0.1178  0.7889
              Bcc     0.5778    77.537    27.667    25.864  0.7443  0.4388  0.5035
 
              Baa    -0.0085    -1.145    -0.409    -0.382  0.7553 -0.6145 -0.2278
     6 C(13)  Bbb     0.0033     0.448     0.160     0.149  0.6186  0.5536  0.5575
              Bcc     0.0052     0.697     0.249     0.233 -0.2165 -0.5620  0.7983
 
              Baa    -0.0085    -1.135    -0.405    -0.379 -0.3014 -0.3917  0.8693
     7 C(13)  Bbb     0.0022     0.297     0.106     0.099  0.3159  0.8192  0.4787
              Bcc     0.0062     0.838     0.299     0.280  0.8996 -0.4189  0.1232
 
              Baa    -0.0154    -8.201    -2.926    -2.736  0.0815 -0.3533  0.9320
     8 H(1)   Bbb    -0.0078    -4.180    -1.492    -1.394  0.8001  0.5807  0.1502
              Bcc     0.0232    12.382     4.418     4.130 -0.5943  0.7334  0.3300
 
              Baa    -0.0315   -16.833    -6.006    -5.615  0.1110  0.7037 -0.7018
     9 H(1)   Bbb    -0.0036    -1.934    -0.690    -0.645  0.5296  0.5556  0.6409
              Bcc     0.0352    18.767     6.697     6.260  0.8409 -0.4428 -0.3110
 
              Baa    -0.1305   -69.649   -24.853   -23.232 -0.1749  0.8394 -0.5145
    10 H(1)   Bbb    -0.1255   -66.983   -23.901   -22.343  0.7086 -0.2555 -0.6577
              Bcc     0.2561   136.632    48.754    45.575  0.6836  0.4797  0.5502
 
              Baa    -0.0407   -21.725    -7.752    -7.247 -0.3802  0.8597 -0.3412
    11 H(1)   Bbb    -0.0058    -3.108    -1.109    -1.037  0.8680  0.4591  0.1895
              Bcc     0.0465    24.833     8.861     8.283 -0.3195  0.2241  0.9207
 
              Baa    -0.0353   -18.842    -6.723    -6.285  0.7020 -0.5390 -0.4654
    12 H(1)   Bbb    -0.0073    -3.887    -1.387    -1.297  0.6384  0.1868  0.7467
              Bcc     0.0426    22.729     8.110     7.581  0.3155  0.8213 -0.4752
 
              Baa    -0.0056    -2.995    -1.069    -0.999 -0.6779  0.1695  0.7153
    13 H(1)   Bbb    -0.0012    -0.638    -0.228    -0.213  0.6082  0.6759  0.4162
              Bcc     0.0068     3.634     1.297     1.212 -0.4129  0.7173 -0.5613
 
              Baa    -0.0055    -2.911    -1.039    -0.971  0.5964  0.7889 -0.1485
    14 H(1)   Bbb    -0.0033    -1.750    -0.625    -0.584 -0.0656  0.2322  0.9704
              Bcc     0.0087     4.661     1.663     1.555  0.8000 -0.5690  0.1902
 
              Baa    -0.0059    -3.148    -1.123    -1.050  0.2089  0.1837  0.9605
    15 H(1)   Bbb    -0.0030    -1.580    -0.564    -0.527  0.7411  0.6111 -0.2780
              Bcc     0.0089     4.728     1.687     1.577 -0.6380  0.7700 -0.0085
 
              Baa    -0.0039    -2.069    -0.738    -0.690 -0.2212  0.7583  0.6132
    16 H(1)   Bbb    -0.0014    -0.746    -0.266    -0.249  0.9342 -0.0156  0.3564
              Bcc     0.0053     2.815     1.004     0.939 -0.2798 -0.6517  0.7050
 
              Baa    -0.0062    -3.284    -1.172    -1.095  0.1376  0.9214  0.3634
    17 H(1)   Bbb    -0.0017    -0.894    -0.319    -0.298  0.9344 -0.2424  0.2610
              Bcc     0.0078     4.178     1.491     1.394 -0.3286 -0.3036  0.8943
 
              Baa    -0.0050    -2.674    -0.954    -0.892  0.6169  0.3847  0.6867
    18 H(1)   Bbb    -0.0027    -1.460    -0.521    -0.487 -0.6622  0.7252  0.1887
              Bcc     0.0077     4.135     1.475     1.379 -0.4254 -0.5711  0.7021
 

 ---------------------------------------------------------------------------------

 No NMR shielding tensors so no spin-rotation constants.
 Leave Link  601 at Thu Apr 26 13:16:29 2018, MaxMem=  671088640 cpu:      24.9
 (Enter /shared/apps/gaussian/G09_LINUX_LINDA/g09/l701.exe)
 Compute integral second derivatives.
 ... and contract with generalized density number  0.
 Leave Link  701 at Thu Apr 26 13:16:30 2018, MaxMem=  671088640 cpu:      12.0
 (Enter /shared/apps/gaussian/G09_LINUX_LINDA/g09/l702.exe)
 L702 exits ... SP integral derivatives will be done elsewhere.
 Leave Link  702 at Thu Apr 26 13:16:31 2018, MaxMem=  671088640 cpu:       0.3
 (Enter /shared/apps/gaussian/G09_LINUX_LINDA/g09/l703.exe)
 Compute integral second derivatives, UseDBF=F ICtDFT=           0.
 Integral derivatives from FoFDir, PRISM(SPDF).
 Calling FoFJK, ICntrl=    100147 FMM=F ISym2X=0 I1Cent= 0 IOpClX= 1 NMat=1 NMatS=1 NMatT=0.
 FoFCou: FMM=F IPFlag=           0 FMFlag=      100000 FMFlg1=         800
         NFxFlg=           0 DoJE=F BraDBF=F KetDBF=F FulRan=T
         Omega=  0.000000  0.000000  1.000000  0.000000  0.000000 ICntrl=  100147 IOpCl=  1
         NMat0=    1 NMatS0=    1 NMatT0=    0 NMatD0=    1 NMtDS0=    0 NMtDT0=    0
         I1Cent=           0 NGrid=           0.
 Symmetry not used in FoFCou.
 Leave Link  703 at Thu Apr 26 13:16:34 2018, MaxMem=  671088640 cpu:      32.2
 (Enter /shared/apps/gaussian/G09_LINUX_LINDA/g09/l716.exe)
 Dipole        =-1.19900850D+00-4.98086029D-02 1.36793686D-01
 Polarizability= 0.00000000D+00 0.00000000D+00 0.00000000D+00
                 0.00000000D+00 0.00000000D+00 0.00000000D+00
 ***** Axes restored to original set *****
 -------------------------------------------------------------------
 Center     Atomic                   Forces (Hartrees/Bohr)
 Number     Number              X              Y              Z
 -------------------------------------------------------------------
      1        8          -0.006474204   -0.002230521   -0.004196148
      2        8          -0.000016499   -0.000001051    0.000017965
      3        6          -0.000089924    0.000002765    0.000034940
      4        6           0.000011333    0.000056739    0.000008945
      5        6          -0.003394739    0.000832213   -0.002307632
      6        6           0.000015695   -0.000005356   -0.000022244
      7        6           0.000009910   -0.000023575   -0.000028591
      8        1           0.000005321    0.000000751   -0.000008082
      9        1           0.000006804    0.000010060    0.000022385
     10        1           0.009965749    0.001349905    0.006483749
     11        1          -0.000005858   -0.000009077   -0.000006119
     12        1          -0.000015655   -0.000000903   -0.000021812
     13        1          -0.000001460   -0.000008816    0.000012455
     14        1          -0.000014549   -0.000003352   -0.000015834
     15        1           0.000013162   -0.000006632    0.000001037
     16        1          -0.000010577    0.000017186    0.000031817
     17        1          -0.000002289    0.000014897   -0.000008161
     18        1          -0.000002222    0.000004765    0.000001328
 -------------------------------------------------------------------
 Cartesian Forces:  Max     0.009965749 RMS     0.002042318
 Leave Link  716 at Thu Apr 26 13:16:34 2018, MaxMem=  671088640 cpu:       1.5
 (Enter /shared/apps/gaussian/G09_LINUX_LINDA/g09/l103.exe)

 GradGradGradGradGradGradGradGradGradGradGradGradGradGradGradGradGradGrad
 Berny optimization.
 Red2BG is reusing G-inverse.
 Internal  Forces:  Max     0.007679047 RMS     0.001204808
 Search for a saddle point.
[...]
    11  H    0.000126   0.000005  -0.002870  -0.022131   0.486285  -0.022487
    12  H   -0.000445   0.000026   0.002687  -0.020375  -0.022487   0.494011
    13  H    0.003651   0.000000   0.003016  -0.000002  -0.000008   0.000005
    14  H   -0.000818   0.000001   0.000118  -0.000004   0.000005   0.000006
    15  H   -0.001499  -0.000019   0.000138   0.000018  -0.000001  -0.000004
    16  H    0.394984   0.000000   0.000037  -0.000076   0.000052   0.000688
    17  H    0.390966  -0.000020  -0.000101   0.000095  -0.000008  -0.000095
    18  H    0.390008   0.000001  -0.000108  -0.000033   0.000009   0.000056
             13         14         15         16         17         18
     1  O    0.000000   0.000000   0.000000   0.000040  -0.000004   0.000000
     2  O   -0.000002   0.000000   0.000001  -0.000004   0.000003   0.000000
     3  C   -0.000848  -0.000530   0.000441  -0.002869   0.000737   0.000024
     4  C   -0.040689  -0.042373  -0.042275  -0.035538  -0.041742  -0.041419
     5  C    0.000145  -0.000097  -0.000083  -0.000713   0.000192   0.000196
     6  C    0.395259   0.389897   0.388378   0.003624  -0.002192  -0.001566
     7  C    0.003651  -0.000818  -0.001499   0.394984   0.390966   0.390008
     8  H    0.000000   0.000001  -0.000019   0.000000  -0.000020   0.000001
     9  H    0.003016   0.000118   0.000138   0.000037  -0.000101  -0.000108
    10  H   -0.000002  -0.000004   0.000018  -0.000076   0.000095  -0.000033
    11  H   -0.000008   0.000005  -0.000001   0.000052  -0.000008   0.000009
    12  H    0.000005   0.000006  -0.000004   0.000688  -0.000095   0.000056
    13  H    0.511817  -0.024307  -0.024856  -0.000092  -0.000036  -0.000055
    14  H   -0.024307   0.539538  -0.034696  -0.000040  -0.000400   0.002586
    15  H   -0.024856  -0.034696   0.545571  -0.000065   0.002694  -0.000378
    16  H   -0.000092  -0.000040  -0.000065   0.511929  -0.025955  -0.024776
    17  H   -0.000036  -0.000400   0.002694  -0.025955   0.538454  -0.033128
    18  H   -0.000055   0.002586  -0.000378  -0.024776  -0.033128   0.533844
 Mulliken atomic charges:
              1
     1  O   -0.319946
     2  O   -0.439809
     3  C   -0.181940
     4  C    0.059124
     5  C   -0.518090
     6  C   -0.509550
     7  C   -0.515368
     8  H    0.455573
     9  H    0.190404
    10  H    0.337007
    11  H    0.206174
    12  H    0.197620
    13  H    0.177002
    14  H    0.171115
    15  H    0.166633
    16  H    0.178774
    17  H    0.170538
    18  H    0.174739
 Sum of Mulliken atomic charges =   0.00000
 Mulliken charges with hydrogens summed into heavy atoms:
              1
     1  O    0.017061
     2  O    0.015764
     3  C    0.008463
     4  C    0.059124
     5  C   -0.114296
     6  C    0.005200
     7  C    0.008683
 Sum of Mulliken charges with hydrogens summed into heavy atoms =   0.00000
          Atomic-Atomic Spin Densities.
              1          2          3          4          5          6
     1  O    0.777624  -0.052928   0.006959   0.000623  -0.068378   0.000002
     2  O   -0.052928   0.028234  -0.002921  -0.000449   0.008014  -0.000003
     3  C    0.006959  -0.002921  -0.724455   0.029529  -0.038322  -0.000389
     4  C    0.000623  -0.000449   0.029529   0.846244  -0.012976  -0.024783
     5  C   -0.068378   0.008014  -0.038322  -0.012976   0.777556   0.000022
     6  C    0.000002  -0.000003  -0.000389  -0.024783   0.000022  -0.093020
     7  C   -0.000021   0.000009   0.000083  -0.027936   0.000324   0.002274
     8  H   -0.000027  -0.000554  -0.000677   0.000307  -0.000247  -0.000007
     9  H   -0.000060   0.000057   0.007560  -0.002123  -0.001577   0.000214
    10  H   -0.079419   0.019622   0.019006  -0.000176   0.071025   0.000019
    11  H    0.002927  -0.000407   0.004951  -0.000141  -0.023665   0.000008
    12  H    0.002030  -0.000155   0.003629  -0.000541  -0.020404   0.000007
    13  H    0.000000   0.000000   0.000953  -0.002225  -0.000003   0.003565
    14  H    0.000000   0.000000  -0.000173  -0.012927   0.000022   0.007962
    15  H   -0.000001   0.000004   0.000249  -0.013292   0.000022   0.006891
    16  H    0.000000   0.000001   0.000834  -0.002160  -0.000412  -0.000079
    17  H   -0.000010   0.000004   0.000081  -0.011862   0.000128   0.000381
    18  H    0.000001   0.000000  -0.000042  -0.012682   0.000118   0.000616
              7          8          9         10         11         12
     1  O   -0.000021  -0.000027  -0.000060  -0.079419   0.002927   0.002030
     2  O    0.000009  -0.000554   0.000057   0.019622  -0.000407  -0.000155
     3  C    0.000083  -0.000677   0.007560   0.019006   0.004951   0.003629
     4  C   -0.027936   0.000307  -0.002123  -0.000176  -0.000141  -0.000541
     5  C    0.000324  -0.000247  -0.001577   0.071025  -0.023665  -0.020404
     6  C    0.002274  -0.000007   0.000214   0.000019   0.000008   0.000007
     7  C   -0.087588  -0.000014   0.000039  -0.000065  -0.000019   0.000332
     8  H   -0.000014  -0.002067  -0.000010   0.000993  -0.000004  -0.000008
     9  H    0.000039  -0.000010   0.041225  -0.000156  -0.000158  -0.000036
    10  H   -0.000065   0.000993  -0.000156  -0.262539   0.009043   0.008463
    11  H   -0.000019  -0.000004  -0.000158   0.009043  -0.038543   0.002732
    12  H    0.000332  -0.000008  -0.000036   0.008463   0.002732  -0.037543
    13  H   -0.000062   0.000000  -0.000071   0.000000   0.000001   0.000000
    14  H    0.000468   0.000000  -0.000032   0.000001   0.000001   0.000002
    15  H    0.000596  -0.000008   0.000041  -0.000003  -0.000001  -0.000002
    16  H    0.003497   0.000000   0.000004   0.000023   0.000009   0.000079
    17  H    0.007727  -0.000011   0.000003  -0.000011  -0.000002  -0.000037
    18  H    0.007289   0.000000  -0.000010   0.000003   0.000004   0.000037
             13         14         15         16         17         18
     1  O    0.000000   0.000000  -0.000001   0.000000  -0.000010   0.000001
     2  O    0.000000   0.000000   0.000004   0.000001   0.000004   0.000000
     3  C    0.000953  -0.000173   0.000249   0.000834   0.000081  -0.000042
     4  C   -0.002225  -0.012927  -0.013292  -0.002160  -0.011862  -0.012682
     5  C   -0.000003   0.000022   0.000022  -0.000412   0.000128   0.000118
     6  C    0.003565   0.007962   0.006891  -0.000079   0.000381   0.000616
     7  C   -0.000062   0.000468   0.000596   0.003497   0.007727   0.007289
     8  H    0.000000   0.000000  -0.000008   0.000000  -0.000011   0.000000
     9  H   -0.000071  -0.000032   0.000041   0.000004   0.000003  -0.000010
    10  H    0.000000   0.000001  -0.000003   0.000023  -0.000011   0.000003
    11  H    0.000001   0.000001  -0.000001   0.000009  -0.000002   0.000004
    12  H    0.000000   0.000002  -0.000002   0.000079  -0.000037   0.000037
    13  H    0.003354  -0.000643  -0.000779   0.000000  -0.000003  -0.000001
    14  H   -0.000643   0.037443  -0.008202  -0.000001  -0.000649   0.001625
    15  H   -0.000779  -0.008202   0.039994   0.000000   0.001659  -0.000635
    16  H    0.000000  -0.000001   0.000000   0.003579  -0.000585  -0.000800
    17  H   -0.000003  -0.000649   0.001659  -0.000585   0.032913  -0.007156
    18  H   -0.000001   0.001625  -0.000635  -0.000800  -0.007156   0.036834
 Mulliken atomic spin densities:
              1
     1  O    0.589320
     2  O   -0.001473
     3  C   -0.693144
     4  C    0.752431
     5  C    0.691248
     6  C   -0.096319
     7  C   -0.093067
     8  H   -0.002335
     9  H    0.044911
    10  H   -0.214171
    11  H   -0.043263
    12  H   -0.041416
    13  H    0.004084
    14  H    0.024897
    15  H    0.026534
    16  H    0.003990
    17  H    0.022569
    18  H    0.025203
 Sum of Mulliken atomic spin densities =   1.00000
 Electronic spatial extent (au):  <R**2>=           1151.5068
 Charge=              0.0000 electrons
 Dipole moment (field-independent basis, Debye):
    X=              3.0862    Y=             -0.0561    Z=             -0.5898  Tot=              3.1425
 Quadrupole moment (field-independent basis, Debye-Ang):
   XX=            -53.4390   YY=            -42.4209   ZZ=            -42.0571
   XY=              1.4420   XZ=             -0.6711   YZ=             -2.0431
 Traceless Quadrupole moment (field-independent basis, Debye-Ang):
   XX=             -7.4666   YY=              3.5514   ZZ=              3.9152
   XY=              1.4420   XZ=             -0.6711   YZ=             -2.0431
 Octapole moment (field-independent basis, Debye-Ang**2):
  XXX=             15.1128  YYY=              4.1286  ZZZ=             -3.8878  XYY=             -7.3538
  XXY=             -1.9839  XXZ=             -1.5048  XZZ=            -11.1209  YZZ=              6.0909
  YYZ=             -4.5193  XYZ=              5.9324
 Hexadecapole moment (field-independent basis, Debye-Ang**3):
 XXXX=          -1043.7944 YYYY=           -278.5311 ZZZZ=           -201.9382 XXXY=             -2.6139
 XXXZ=              2.4017 YYYX=             -8.2748 YYYZ=             -5.1485 ZZZX=              6.0352
 ZZZY=             -6.4103 XXYY=           -214.6222 XXZZ=           -193.0949 YYZZ=            -77.0795
 XXYZ=             -8.2211 YYXZ=              7.0346 ZZXY=             -4.0019
 N-N= 3.026011348911D+02 E-N=-2.113309755773D+03  KE= 5.157687137396D+02
                          Isotropic Fermi Contact Couplings
        Atom                 a.u.       MegaHertz       Gauss      10(-4) cm-1
     1  O(17)              0.11862     -71.90754     -25.65840     -23.98577
     2  O(17)              0.02282     -13.83234      -4.93572      -4.61397
     3  C(13)             -0.12466    -140.13665     -50.00424     -46.74455
     4  C(13)              0.13405     150.70227      53.77431      50.26886
     5  C(13)              0.16795     188.81203      67.37283      62.98091
     6  C(13)             -0.03199     -35.96598     -12.83356     -11.99696
     7  C(13)             -0.03071     -34.52942     -12.32096     -11.51778
     8  H(1)              -0.00119      -5.32720      -1.90088      -1.77696
     9  H(1)               0.01391      62.19302      22.19201      20.74536
    10  H(1)              -0.08629    -385.70663    -137.62971    -128.65788
    11  H(1)              -0.01499     -66.98562     -23.90213     -22.34400
    12  H(1)              -0.01363     -60.90267     -21.73159     -20.31494
    13  H(1)               0.00139       6.20465       2.21397       2.06965
    14  H(1)               0.01112      49.72390      17.74272      16.58611
    15  H(1)               0.01174      52.46821      18.72196      17.50151
    16  H(1)               0.00135       6.02451       2.14970       2.00956
    17  H(1)               0.01014      45.30445      16.16575      15.11194
    18  H(1)               0.01125      50.29316      17.94585      16.77599
 --------------------------------------------------------
       Center         ----  Spin Dipole Couplings  ----
                      3XX-RR        3YY-RR        3ZZ-RR
 --------------------------------------------------------
     1   Atom        1.050228     -0.890178     -0.160050
     2   Atom        0.179395     -0.180710      0.001315
     3   Atom        0.028999     -0.001046     -0.027953
     4   Atom       -0.019541      0.000941      0.018599
     5   Atom        0.183950     -0.159192     -0.024758
     6   Atom       -0.003454     -0.000165      0.003619
     7   Atom        0.003976      0.001130     -0.005106
     8   Atom       -0.001157      0.008392     -0.007235
     9   Atom        0.024237     -0.012662     -0.011575
    10   Atom        0.087870     -0.065361     -0.022509
    11   Atom       -0.003830     -0.032911      0.036741
    12   Atom       -0.016877      0.021931     -0.005054
    13   Atom       -0.002311      0.003695     -0.001384
    14   Atom        0.003419     -0.000365     -0.003054
    15   Atom        0.001453      0.004388     -0.005841
    16   Atom       -0.001249      0.000694      0.000556
    17   Atom       -0.001018     -0.003858      0.004876
    18   Atom       -0.001623      0.000974      0.000649
 --------------------------------------------------------
                        XY            XZ            YZ
 --------------------------------------------------------
     1   Atom       -0.748186      1.558800     -0.485785
     2   Atom       -0.206761      0.136645     -0.174464
     3   Atom        0.238583     -0.249822      0.236492
     4   Atom       -0.287089      0.313609     -0.310038
     5   Atom       -0.267863      0.359182     -0.202138
     6   Atom       -0.005843      0.001784      0.002688
     7   Atom        0.003324      0.003320     -0.003749
     8   Atom        0.009221     -0.006339     -0.012876
     9   Atom        0.017286     -0.008448     -0.018904
    10   Atom       -0.121252      0.151920     -0.083535
    11   Atom       -0.008940     -0.021254     -0.017354
    12   Atom       -0.024077      0.003154      0.026196
    13   Atom        0.002087      0.003790      0.003630
    14   Atom        0.006961      0.001649      0.001101
    15   Atom        0.005959     -0.000864     -0.000071
    16   Atom       -0.001640     -0.000959      0.004444
    17   Atom       -0.000522     -0.003209      0.004932
    18   Atom       -0.002603     -0.004407      0.004801
 --------------------------------------------------------


 ---------------------------------------------------------------------------------
              Anisotropic Spin Dipole Couplings in Principal Axis System
 ---------------------------------------------------------------------------------

       Atom             a.u.   MegaHertz   Gauss  10(-4) cm-1        Axes

              Baa    -1.2316    89.118    31.799    29.726 -0.5970 -0.2045  0.7758
     1 O(17)  Bbb    -1.1302    81.780    29.181    27.279  0.0941  0.9425  0.3208
              Bcc     2.3618  -170.898   -60.981   -57.005  0.7967 -0.2645  0.5434
 
              Baa    -0.3163    22.884     8.166     7.633  0.2678  0.8884  0.3728
     2 O(17)  Bbb    -0.0638     4.619     1.648     1.541 -0.5827 -0.1588  0.7970
              Bcc     0.3801   -27.503    -9.814    -9.174  0.7673 -0.4307  0.4752
 
              Baa    -0.4840   -64.947   -23.175   -21.664  0.5586 -0.5707  0.6019
     3 C(13)  Bbb     0.2223    29.833    10.645     9.951 -0.0318  0.7104  0.7031
              Bcc     0.2617    35.114    12.530    11.713  0.8289  0.4119 -0.3786
 
              Baa    -0.3150   -42.273   -15.084   -14.101 -0.6738  0.1054  0.7313
     4 C(13)  Bbb    -0.2929   -39.299   -14.023   -13.109  0.4810  0.8139  0.3259
              Bcc     0.6079    81.571    29.107    27.209  0.5609 -0.5714  0.5991
 
              Baa    -0.3072   -41.229   -14.712   -13.753  0.2872  0.9134  0.2885
     5 C(13)  Bbb    -0.2944   -39.505   -14.096   -13.177 -0.6185 -0.0532  0.7840
              Bcc     0.6016    80.734    28.808    26.930  0.7315 -0.4036  0.5497
 
              Baa    -0.0086    -1.160    -0.414    -0.387  0.7611  0.6016 -0.2426
     6 C(13)  Bbb     0.0033     0.441     0.157     0.147  0.5824 -0.4691  0.6639
              Bcc     0.0054     0.719     0.256     0.240 -0.2855  0.6466  0.7074
 
              Baa    -0.0085    -1.135    -0.405    -0.379 -0.3398  0.4422  0.8301
     7 C(13)  Bbb     0.0022     0.299     0.107     0.100 -0.3740  0.7463 -0.5506
              Bcc     0.0062     0.836     0.298     0.279  0.8630  0.4975  0.0882
 
              Baa    -0.0146    -7.785    -2.778    -2.597  0.1066  0.4531  0.8851
     8 H(1)   Bbb    -0.0066    -3.528    -1.259    -1.177  0.8884 -0.4432  0.1198
              Bcc     0.0212    11.312     4.036     3.773  0.4465  0.7735 -0.4498
 
              Baa    -0.0319   -17.030    -6.077    -5.681 -0.1350  0.7532  0.6438
     9 H(1)   Bbb    -0.0041    -2.213    -0.790    -0.738  0.5132 -0.5027  0.6957
              Bcc     0.0361    19.243     6.866     6.419  0.8476  0.4243 -0.3187
 
              Baa    -0.1322   -70.525   -25.165   -23.525  0.4991  0.8659 -0.0318
    10 H(1)   Bbb    -0.1286   -68.618   -24.485   -22.888 -0.4389  0.2843  0.8524
              Bcc     0.2608   139.143    49.650    46.413  0.7471 -0.4115  0.5220
 
              Baa    -0.0424   -22.600    -8.064    -7.539  0.3662  0.8835  0.2922
    11 H(1)   Bbb    -0.0055    -2.928    -1.045    -0.977  0.8615 -0.4406  0.2525
              Bcc     0.0478    25.528     9.109     8.515 -0.3518 -0.1593  0.9224
 
              Baa    -0.0366   -19.520    -6.965    -6.511  0.7031  0.5108 -0.4947
    12 H(1)   Bbb    -0.0075    -4.027    -1.437    -1.343  0.6390 -0.1487  0.7547
              Bcc     0.0441    23.547     8.402     7.854 -0.3119  0.8468  0.4310
 
              Baa    -0.0058    -3.075    -1.097    -1.026 -0.7021 -0.1148  0.7028
    13 H(1)   Bbb    -0.0013    -0.690    -0.246    -0.230 -0.6042  0.6183 -0.5026
              Bcc     0.0071     3.766     1.344     1.256  0.3769  0.7775  0.5035
 
              Baa    -0.0057    -3.038    -1.084    -1.013 -0.6123  0.7888  0.0535
    14 H(1)   Bbb    -0.0034    -1.798    -0.642    -0.600 -0.0951 -0.1407  0.9855
              Bcc     0.0091     4.836     1.726     1.613  0.7849  0.5983  0.1612
 
              Baa    -0.0060    -3.206    -1.144    -1.069  0.1983 -0.1070  0.9743
    15 H(1)   Bbb    -0.0031    -1.639    -0.585    -0.547  0.7608 -0.6099 -0.2218
              Bcc     0.0091     4.845     1.729     1.616  0.6179  0.7852 -0.0395
 
              Baa    -0.0039    -2.089    -0.745    -0.697  0.1999  0.7160 -0.6688
    16 H(1)   Bbb    -0.0017    -0.882    -0.315    -0.294  0.9442  0.0415  0.3266
              Bcc     0.0056     2.971     1.060     0.991 -0.2616  0.6968  0.6678
 
              Baa    -0.0062    -3.328    -1.187    -1.110 -0.1845  0.8775 -0.4427
    17 H(1)   Bbb    -0.0019    -1.034    -0.369    -0.345  0.9276  0.3043  0.2166
              Bcc     0.0082     4.362     1.556     1.455 -0.3248  0.3707  0.8701
 
              Baa    -0.0053    -2.820    -1.006    -0.941  0.6580 -0.2665  0.7042
    18 H(1)   Bbb    -0.0029    -1.527    -0.545    -0.509  0.5993  0.7516 -0.2755
              Bcc     0.0081     4.347     1.551     1.450 -0.4559  0.6034  0.6543
 

 ---------------------------------------------------------------------------------

 No NMR shielding tensors so no spin-rotation constants.
 Leave Link  601 at Thu Apr 26 13:23:17 2018, MaxMem=  671088640 cpu:      16.4
 (Enter /shared/apps/gaussian/G09_LINUX_LINDA/g09/l9999.exe)
 1\1\GINC-COMPUTE-3-045\FTS\UHF\6-31G(d)\C5H11O2(2)\ROOT\26-Apr-2018\0\
 \#p hf/6-31g* opt=(ts,calcfc,noeigentest)\\Gaussian input prepared by 
 ASE\\0,2\O,-2.5229207632,1.138716016,-2.2116502867\O,-1.851441438,0.34
 80651165,-3.0999141539\C,0.5100151599,1.155088522,-1.0229998437\C,0.81
 4117979,0.1207570283,-0.1928128862\C,-0.5783060755,2.1112716404,-0.881
 1537035\C,1.9747533188,-0.7927631188,-0.4979185309\C,0.0682363113,-0.2
 041170237,1.076694935\H,-1.8218064407,-0.4997942131,-2.6723491867\H,1.
 10750259,1.2649402577,-1.9123652918\H,-1.6080365031,1.6377707252,-1.54
 71673879\H,-0.4311771494,3.047566088,-1.3990852493\H,-0.9971955604,2.2
 498158361,0.1033347525\H,2.4769035525,-0.5166682234,-1.4174557967\H,2.
 7069194768,-0.7696885076,0.3062645819\H,1.6435702124,-1.8249685659,-0.
 5907850374\H,-0.7832499407,0.4390864136,1.2502572062\H,-0.292614569,-1
 .2297736234,1.0508500055\H,0.7291785527,-0.1264307632,1.9370778864\\Ve
 rsion=EM64L-G09RevB.01\State=2-A\HF=-345.258758\S2=1.00086\S2-1=0.\S2A
 =0.776371\RMSD=6.009e-09\RMSF=2.420e-06\Dipole=0.7565818,-0.5305953,0.
 8213787\Quadrupole=-2.2987098,3.9785607,-1.6798509,1.5143896,-3.253905
 4,1.4097925\PG=C01 [X(C5H11O2)]\\@


 SIGN SEEN IN A RESTAURANT-
 WE RESERVE THE RIGHT TO SERVE REFUSE TO ANYONE.
 Job cpu time:  0 days  1 hours 16 minutes  9.6 seconds.
 File lengths (MBytes):  RWF=    136 Int=      0 D2E=      0 Chk=      3 Scr=      1
 Normal termination of Gaussian 09 at Thu Apr 26 13:23:17 2018.
