 Entering Gaussian System, Link 0=g09
 Initial command:
 /shared/apps/gaussian/G09_LINUX_LINDA/g09/l1.exe /home/harms.n/Code/AutoTST/ipython_notebooks/Gau-20857.inp -scrdir=/home/harms.n/Code/AutoTST/ipython_notebooks/
 Entering Link 1 = /shared/apps/gaussian/G09_LINUX_LINDA/g09/l1.exe PID=     20858.
  
 Copyright (c) 1988,1990,1992,1993,1995,1998,2003,2009,2010,
            Gaussian, Inc.  All Rights Reserved.
  
 This is part of the Gaussian(R) 09 program.  It is based on
 the Gaussian(R) 03 system (copyright 2003, Gaussian, Inc.),
 the Gaussian(R) 98 system (copyright 1998, Gaussian, Inc.),
 the Gaussian(R) 94 system (copyright 1995, Gaussian, Inc.),
 the Gaussian 92(TM) system (copyright 1992, Gaussian, Inc.),
 the Gaussian 90(TM) system (copyright 1990, Gaussian, Inc.),
 the Gaussian 88(TM) system (copyright 1988, Gaussian, Inc.),
 the Gaussian 86(TM) system (copyright 1986, Carnegie Mellon
 University), and the Gaussian 82(TM) system (copyright 1983,
 Carnegie Mellon University). Gaussian is a federally registered
 trademark of Gaussian, Inc.
  
 This software contains proprietary and confidential information,
 including trade secrets, belonging to Gaussian, Inc.
  
 This software is provided under written license and may be
 used, copied, transmitted, or stored only in accord with that
 written license.
  
 The following legend is applicable only to US Government
 contracts under FAR:
  
                    RESTRICTED RIGHTS LEGEND
  
 Use, reproduction and disclosure by the US Government is
 subject to restrictions as set forth in subparagraphs (a)
 and (c) of the Commercial Computer Software - Restricted
 Rights clause in FAR 52.227-19.
  
 Gaussian, Inc.
 340 Quinnipiac St., Bldg. 40, Wallingford CT 06492
  
  
 ---------------------------------------------------------------
 Warning -- This program may not be used in any manner that
 competes with the business of Gaussian, Inc. or will provide
 assistance to any competitor of Gaussian, Inc.  The licensee
 of this program is prohibited from giving any competitor of
 Gaussian, Inc. access to this program.  By using this program,
 the user acknowledges that Gaussian, Inc. is engaged in the
 business of creating and licensing software in the field of
 computational chemistry and represents and warrants to the
 licensee that it is not a competitor of Gaussian, Inc. and that
 it will not use this program in any manner prohibited above.
 ---------------------------------------------------------------
  

 Cite this work as:
 Gaussian 09, Revision B.01,
 M. J. Frisch, G. W. Trucks, H. B. Schlegel, G. E. Scuseria, 
 M. A. Robb, J. R. Cheeseman, G. Scalmani, V. Barone, B. Mennucci, 
 G. A. Petersson, H. Nakatsuji, M. Caricato, X. Li, H. P. Hratchian, 
 A. F. Izmaylov, J. Bloino, G. Zheng, J. L. Sonnenberg, M. Hada, 
 M. Ehara, K. Toyota, R. Fukuda, J. Hasegawa, M. Ishida, T. Nakajima, 
 Y. Honda, O. Kitao, H. Nakai, T. Vreven, J. A. Montgomery, Jr., 
 J. E. Peralta, F. Ogliaro, M. Bearpark, J. J. Heyd, E. Brothers, 
 K. N. Kudin, V. N. Staroverov, T. Keith, R. Kobayashi, J. Normand, 
 K. Raghavachari, A. Rendell, J. C. Burant, S. S. Iyengar, J. Tomasi, 
 M. Cossi, N. Rega, J. M. Millam, M. Klene, J. E. Knox, J. B. Cross, 
 V. Bakken, C. Adamo, J. Jaramillo, R. Gomperts, R. E. Stratmann, 
 O. Yazyev, A. J. Austin, R. Cammi, C. Pomelli, J. W. Ochterski, 
 R. L. Martin, K. Morokuma, V. G. Zakrzewski, G. A. Voth, 
 P. Salvador, J. J. Dannenberg, S. Dapprich, A. D. Daniels, 
 O. Farkas, J. B. Foresman, J. V. Ortiz, J. Cioslowski, 
 and D. J. Fox, Gaussian, Inc., Wallingford CT, 2010.
 
 ******************************************
 Gaussian 09:  EM64L-G09RevB.01 12-Aug-2010
                26-Apr-2018 
 ******************************************
 %nprocshared=20
 Will use up to   20 processors via shared memory.
 %mem=5GB
 -----------------------------------------------
 #p hf/6-31g* Opt=(ModRedun,Loose) Int(Grid=SG1)
 -----------------------------------------------
 1/7=-1,18=120,19=15,38=1/1,3;
 2/9=110,12=2,17=6,18=5,40=1/2;
 3/5=1,6=6,7=1,11=9,16=1,25=1,30=1,71=1,75=1/1,2,3;
 4//1;
 5/5=2,38=5/2;
 6/7=2,8=2,9=2,10=2,28=1/1;
 7//1,2,3,16;
 1/7=-1,18=20,19=15/3(2);
 2/9=110/2;
 99//99;
 2/9=110/2;
 3/5=1,6=6,7=1,11=9,16=1,25=1,30=1,71=1,75=1/1,2,3;
 4/5=5,16=3/1;
 5/5=2,38=5/2;
 7//1,2,3,16;
 1/7=-1,18=20,19=15/3(-5);
 2/9=110/2;
 6/7=2,8=2,9=2,10=2,19=2,28=1/1;
 99/9=1/99;
 Leave Link    1 at Thu Apr 26 12:30:23 2018, MaxMem=  671088640 cpu:       2.8
 (Enter /shared/apps/gaussian/G09_LINUX_LINDA/g09/l101.exe)
 ------------------------------
 Gaussian input prepared by ASE
 ------------------------------
 Symbolic Z-matrix:
 Charge =  0 Multiplicity = 2
 O                    -1.91517   1.70439  -2.99768 
 O                    -2.48411   1.26522  -4.09995 
 C                     0.3373    0.5562   -0.9851 
 C                     0.988    -0.1118   -0.0102 
 C                    -0.8219    1.4737   -0.7225 
 C                     2.25097  -0.88978  -0.29425 
 C                     0.43073  -0.07461   1.3891 
 H                    -3.44401   1.48079  -3.98668 
 H                     0.6556    0.4338   -2.0175 
 H                    -1.48895   1.68479  -1.83111 
 H                    -0.44788   2.44825  -0.34455 
 H                    -1.49423   1.0327    0.04284 
 H                     2.0476   -1.68229  -1.04471 
 H                     3.03731  -0.20826  -0.68101 
 H                     2.64274  -1.37876   0.62178 
 H                    -0.59508  -0.50028   1.39587 
 H                     1.05498  -0.66046   2.09536 
 H                     0.39055   0.97528   1.74911 
 
 NAtoms=     18 NQM=     18 NQMF=      0 NMic=      0 NMicF=      0 NTot=     18.
 The following ModRedundant input section has been read:
 B       1       5 F                                                           
 B       1      10 F                                                           
 B       5      10 F                                                           
                    Isotopes and Nuclear Properties:
 (Nuclear quadrupole moments (NQMom) in fm**2, nuclear magnetic moments (NMagM)
  in nuclear magnetons)

  Atom         1           2           3           4           5           6           7           8           9          10
 IAtWgt=          16          16          12          12          12          12          12           1           1           1
 AtmWgt=  15.9949146  15.9949146  12.0000000  12.0000000  12.0000000  12.0000000  12.0000000   1.0078250   1.0078250   1.0078250
 NucSpn=           0           0           0           0           0           0           0           1           1           1
 AtZEff=   0.0000000   0.0000000   0.0000000   0.0000000   0.0000000   0.0000000   0.0000000   0.0000000   0.0000000   0.0000000
 NQMom=    0.0000000   0.0000000   0.0000000   0.0000000   0.0000000   0.0000000   0.0000000   0.0000000   0.0000000   0.0000000
 NMagM=    0.0000000   0.0000000   0.0000000   0.0000000   0.0000000   0.0000000   0.0000000   2.7928460   2.7928460   2.7928460

  Atom        11          12          13          14          15          16          17          18
 IAtWgt=           1           1           1           1           1           1           1           1
 AtmWgt=   1.0078250   1.0078250   1.0078250   1.0078250   1.0078250   1.0078250   1.0078250   1.0078250
 NucSpn=           1           1           1           1           1           1           1           1
 AtZEff=   0.0000000   0.0000000   0.0000000   0.0000000   0.0000000   0.0000000   0.0000000   0.0000000
 NQMom=    0.0000000   0.0000000   0.0000000   0.0000000   0.0000000   0.0000000   0.0000000   0.0000000
 NMagM=    2.7928460   2.7928460   2.7928460   2.7928460   2.7928460   2.7928460   2.7928460   2.7928460
 Leave Link  101 at Thu Apr 26 12:30:23 2018, MaxMem=  671088640 cpu:       1.2
 (Enter /shared/apps/gaussian/G09_LINUX_LINDA/g09/l103.exe)

 GradGradGradGradGradGradGradGradGradGradGradGradGradGradGradGradGradGrad
 Berny optimization.
 Initialization pass.
                           ----------------------------
                           !    Initial Parameters    !
                           ! (Angstroms and Degrees)  !
 --------------------------                            --------------------------
 ! Name  Definition              Value          Derivative Info.                !
 --------------------------------------------------------------------------------
 ! R1    R(1,2)                  1.3159         estimate D2E/DX2                !
 ! R2    R(1,5)                  2.5347         Frozen                          !
 ! R3    R(1,10)                 1.2421         Frozen                          !
 ! R4    R(2,8)                  0.9903         estimate D2E/DX2                !
 ! R5    R(3,4)                  1.3491         estimate D2E/DX2                !
 ! R6    R(3,5)                  1.5015         estimate D2E/DX2                !
 ! R7    R(3,9)                  1.0873         estimate D2E/DX2                !
 ! R8    R(4,6)                  1.5103         estimate D2E/DX2                !
 ! R9    R(4,7)                  1.5066         estimate D2E/DX2                !
 ! R10   R(5,10)                 1.3109         Frozen                          !
 ! R11   R(5,11)                 1.1102         estimate D2E/DX2                !
 ! R12   R(5,12)                 1.1101         estimate D2E/DX2                !
 ! R13   R(6,13)                 1.1102         estimate D2E/DX2                !
 ! R14   R(6,14)                 1.1101         estimate D2E/DX2                !
 ! R15   R(6,15)                 1.1098         estimate D2E/DX2                !
 ! R16   R(7,16)                 1.1106         estimate D2E/DX2                !
 ! R17   R(7,17)                 1.1098         estimate D2E/DX2                !
 ! R18   R(7,18)                 1.1106         estimate D2E/DX2                !
 ! A1    A(2,1,10)             158.401          estimate D2E/DX2                !
 ! A2    A(1,2,8)              104.5148         estimate D2E/DX2                !
 ! A3    A(4,3,5)              123.2672         estimate D2E/DX2                !
 ! A4    A(4,3,9)              119.2895         estimate D2E/DX2                !
 ! A5    A(5,3,9)              117.4432         estimate D2E/DX2                !
 ! A6    A(3,4,6)              121.4991         estimate D2E/DX2                !
 ! A7    A(3,4,7)              118.7197         estimate D2E/DX2                !
 ! A8    A(6,4,7)              119.7812         estimate D2E/DX2                !
 ! A9    A(3,5,10)             110.08           estimate D2E/DX2                !
 ! A10   A(3,5,11)             109.6242         estimate D2E/DX2                !
 ! A11   A(3,5,12)             110.2072         estimate D2E/DX2                !
 ! A12   A(10,5,11)            108.5408         estimate D2E/DX2                !
 ! A13   A(10,5,12)            109.8056         estimate D2E/DX2                !
 ! A14   A(11,5,12)            108.5461         estimate D2E/DX2                !
 ! A15   A(4,6,13)             109.9772         estimate D2E/DX2                !
 ! A16   A(4,6,14)             109.9757         estimate D2E/DX2                !
 ! A17   A(4,6,15)             111.526          estimate D2E/DX2                !
 ! A18   A(13,6,14)            109.4187         estimate D2E/DX2                !
 ! A19   A(13,6,15)            107.943          estimate D2E/DX2                !
 ! A20   A(14,6,15)            107.9393         estimate D2E/DX2                !
 ! A21   A(4,7,16)             109.7442         estimate D2E/DX2                !
 ! A22   A(4,7,17)             111.7131         estimate D2E/DX2                !
 ! A23   A(4,7,18)             109.7411         estimate D2E/DX2                !
 ! A24   A(16,7,17)            108.2587         estimate D2E/DX2                !
 ! A25   A(16,7,18)            109.0819         estimate D2E/DX2                !
 ! A26   A(17,7,18)            108.245          estimate D2E/DX2                !
 ! A27   A(1,10,5)             166.2525         estimate D2E/DX2                !
 ! D1    D(10,1,2,8)            89.2886         estimate D2E/DX2                !
 ! D2    D(2,1,10,5)            70.9871         estimate D2E/DX2                !
 ! D3    D(5,3,4,6)           -172.3928         estimate D2E/DX2                !
 ! D4    D(5,3,4,7)              7.696          estimate D2E/DX2                !
 ! D5    D(9,3,4,6)              7.6703         estimate D2E/DX2                !
 ! D6    D(9,3,4,7)           -172.2409         estimate D2E/DX2                !
 ! D7    D(4,3,5,10)          -162.2532         estimate D2E/DX2                !
 ! D8    D(4,3,5,11)            78.4208         estimate D2E/DX2                !
 ! D9    D(4,3,5,12)           -40.9901         estimate D2E/DX2                !
 ! D10   D(9,3,5,10)            17.6848         estimate D2E/DX2                !
 ! D11   D(9,3,5,11)          -101.6412         estimate D2E/DX2                !
 ! D12   D(9,3,5,12)           138.9479         estimate D2E/DX2                !
 ! D13   D(3,4,6,13)           -59.9007         estimate D2E/DX2                !
 ! D14   D(3,4,6,14)            60.6655         estimate D2E/DX2                !
 ! D15   D(3,4,6,15)          -179.6204         estimate D2E/DX2                !
 ! D16   D(7,4,6,13)           120.0096         estimate D2E/DX2                !
 ! D17   D(7,4,6,14)          -119.4242         estimate D2E/DX2                !
 ! D18   D(7,4,6,15)             0.2899         estimate D2E/DX2                !
 ! D19   D(3,4,7,16)            59.926          estimate D2E/DX2                !
 ! D20   D(3,4,7,17)          -179.9926         estimate D2E/DX2                !
 ! D21   D(3,4,7,18)           -59.9306         estimate D2E/DX2                !
 ! D22   D(6,4,7,16)          -119.9868         estimate D2E/DX2                !
 ! D23   D(6,4,7,17)             0.0946         estimate D2E/DX2                !
 ! D24   D(6,4,7,18)           120.1566         estimate D2E/DX2                !
 ! D25   D(3,5,10,1)             0.0            estimate D2E/DX2                !
 ! D26   D(11,5,10,1)          119.9843         estimate D2E/DX2                !
 ! D27   D(12,5,10,1)         -121.5029         estimate D2E/DX2                !
 --------------------------------------------------------------------------------
 Trust Radius=3.00D-01 FncErr=1.00D-07 GrdErr=1.00D-07
 Number of steps in this run=     82 maximum allowed number of steps=    108.
 GradGradGradGradGradGradGradGradGradGradGradGradGradGradGradGradGradGrad

 Leave Link  103 at Thu Apr 26 12:30:23 2018, MaxMem=  671088640 cpu:       0.2
 (Enter /shared/apps/gaussian/G09_LINUX_LINDA/g09/l202.exe)
                          Input orientation:                          
 ---------------------------------------------------------------------
 Center     Atomic      Atomic             Coordinates (Angstroms)
 Number     Number       Type             X           Y           Z
 ---------------------------------------------------------------------
      1          8           0       -1.915166    1.704393   -2.997676
      2          8           0       -2.484111    1.265223   -4.099950
      3          6           0        0.337300    0.556200   -0.985100
      4          6           0        0.988000   -0.111800   -0.010200
      5          6           0       -0.821900    1.473700   -0.722500
      6          6           0        2.250972   -0.889778   -0.294245
      7          6           0        0.430733   -0.074608    1.389101
      8          1           0       -3.444012    1.480788   -3.986679
      9          1           0        0.655600    0.433800   -2.017500
     10          1           0       -1.488953    1.684786   -1.831108
     11          1           0       -0.447883    2.448245   -0.344553
     12          1           0       -1.494230    1.032705    0.042840
     13          1           0        2.047603   -1.682289   -1.044715
     14          1           0        3.037305   -0.208262   -0.681011
     15          1           0        2.642742   -1.378764    0.621775
     16          1           0       -0.595081   -0.500285    1.395871
     17          1           0        1.054977   -0.660462    2.095364
     18          1           0        0.390553    0.975281    1.749108
 ---------------------------------------------------------------------
                    Distance matrix (angstroms):
                    1          2          3          4          5
     1  O    0.000000
     2  O    1.315894   0.000000
     3  C    3.231472   4.262085   0.000000
     4  C    4.544441   5.538755   1.349098   0.000000
     5  C    2.534734   3.770090   1.501502   2.509366   0.000000
     6  C    5.603121   6.445808   2.496052   1.510308   3.900253
     7  C    5.283171   6.357762   2.458348   1.506643   2.902620
     8  H    1.834529   0.990307   4.915553   6.163721   4.186930
     9  H    3.030510   3.858193   1.087266   2.106519   2.222931
    10  H    1.242145   2.512771   2.307517   3.560719   1.310926
    11  H    3.121745   4.432694   2.146310   2.954215   1.110167
    12  H    3.142148   4.265753   2.153653   2.733893   1.110068
    13  H    5.566616   6.209567   2.817716   2.158568   4.277632
    14  H    5.792422   6.659305   2.822570   2.158459   4.210010
    15  H    6.586410   7.454527   3.411919   2.177788   4.684802
    16  H    5.089841   6.073673   2.766680   2.152696   2.904403
    17  H    6.352428   7.390218   3.388891   2.176905   4.002208
    18  H    5.327280   6.523745   2.766651   2.152639   2.797734
                    6          7          8          9         10
     6  C    0.000000
     7  C    2.609871   0.000000
     8  H    7.189332   6.806755   0.000000
     9  H    2.695678   3.451662   4.666977   0.000000
    10  H    4.793472   4.141304   2.917252   2.489742   0.000000
    11  H    4.292872   3.184699   4.814337   2.841552   1.968893
    12  H    4.223281   2.596929   4.498828   3.037344   1.984167
    13  H    1.110242   3.335021   6.986991   2.713267   4.945992
    14  H    1.110122   3.331283   7.469124   2.805524   5.039183
    15  H    1.109812   2.680036   8.152513   3.768275   5.698498
    16  H    3.332899   1.110649   6.404132   3.753374   3.998366
    17  H    2.682018   1.109826   7.862385   4.274641   5.233445
    18  H    3.333901   1.110624   6.917997   3.814550   4.105349
                   11         12         13         14         15
    11  H    0.000000
    12  H    1.802407   0.000000
    13  H    4.876371   4.593315   0.000000
    14  H    4.395085   4.753816   1.812332   0.000000
    15  H    5.013158   4.823368   1.795413   1.795273   0.000000
    16  H    3.427036   2.233656   3.786472   4.194394   3.443028
    17  H    4.227983   3.684850   3.448120   3.441273   2.282196
    18  H    2.693700   2.543041   4.196896   3.783061   3.447428
                   16         17         18
    16  H    0.000000
    17  H    1.799344   0.000000
    18  H    1.809294   1.799168   0.000000
 Stoichiometry    C5H11O2(2)
 Framework group  C1[X(C5H11O2)]
 Deg. of freedom    48
 Full point group                 C1      NOp   1
 Largest Abelian subgroup         C1      NOp   1
 Largest concise Abelian subgroup C1      NOp   1
                         Standard orientation:                         
 ---------------------------------------------------------------------
 Center     Atomic      Atomic             Coordinates (Angstroms)
 Number     Number       Type             X           Y           Z
 ---------------------------------------------------------------------
      1          8           0       -2.738697   -0.068190    0.204880
      2          8           0       -3.717306    0.590661   -0.378059
      3          6           0        0.478536    0.226402    0.275847
      4          6           0        1.793888    0.171616   -0.018962
      5          6           0       -0.387466   -0.993086    0.407749
      6          6           0        2.664192    1.405221    0.023714
      7          6           0        2.395775   -1.156023   -0.399853
      8          1           0       -4.323329   -0.114803   -0.718303
      9          1           0        0.007258    1.194431    0.427384
     10          1           0       -1.652009   -0.658720    0.320237
     11          1           0       -0.215362   -1.467419    1.396616
     12          1           0       -0.137184   -1.728677   -0.385041
     13          1           0        2.281419    2.164356   -0.690314
     14          1           0        2.667914    1.831441    1.048748
     15          1           0        3.713389    1.173175   -0.253817
     16          1           0        1.889903   -1.551114   -1.306239
     17          1           0        3.480442   -1.067762   -0.617620
     18          1           0        2.266033   -1.879442    0.432804
 ---------------------------------------------------------------------
 Rotational constants (GHZ):      5.2397287      0.8139214      0.7344813
 Leave Link  202 at Thu Apr 26 12:30:24 2018, MaxMem=  671088640 cpu:       0.9
 (Enter /shared/apps/gaussian/G09_LINUX_LINDA/g09/l301.exe)
 Standard basis: 6-31G(d) (6D, 7F)
 Ernie: Thresh=  0.10000D-02 Tol=  0.10000D-05 Strict=F.
 There are   127 symmetry adapted basis functions of A   symmetry.
 Integral buffers will be    131072 words long.
 Raffenetti 2 integral format.
 Two-electron integral symmetry is turned on.
   127 basis functions,   240 primitive gaussians,   127 cartesian basis functions
    29 alpha electrons       28 beta electrons
       nuclear repulsion energy       288.7151135470 Hartrees.
 IExCor=    0 DFT=F Ex=HF Corr=None ExCW=0 ScaHFX=  1.000000
 ScaDFX=  1.000000  1.000000  1.000000  1.000000 ScalE2=  1.000000  1.000000
 IRadAn=      1 IRanWt=     -1 IRanGd=            0 ICorTp=0
 NAtoms=   18 NActive=   18 NUniq=   18 SFac= 1.00D+00 NAtFMM=   50 NAOKFM=F Big=F
 Leave Link  301 at Thu Apr 26 12:30:24 2018, MaxMem=  671088640 cpu:       1.0
 (Enter /shared/apps/gaussian/G09_LINUX_LINDA/g09/l302.exe)
 NPDir=0 NMtPBC=     1 NCelOv=     1 NCel=       1 NClECP=     1 NCelD=      1
         NCelK=      1 NCelE2=     1 NClLst=     1 CellRange=     0.0.
 One-electron integrals computed using PRISM.
 NBasis=   127 RedAO= T  NBF=   127
 NBsUse=   127 1.00D-06 NBFU=   127
 Leave Link  302 at Thu Apr 26 12:30:25 2018, MaxMem=  671088640 cpu:       6.8
 (Enter /shared/apps/gaussian/G09_LINUX_LINDA/g09/l303.exe)
 DipDrv:  MaxL=1.
 Leave Link  303 at Thu Apr 26 12:30:25 2018, MaxMem=  671088640 cpu:       1.6
 (Enter /shared/apps/gaussian/G09_LINUX_LINDA/g09/l401.exe)
 Harris functional with IExCor=  205 diagonalized for initial guess.
 ExpMin= 1.61D-01 ExpMax= 5.48D+03 ExpMxC= 8.25D+02 IAcc=1 IRadAn=         1 AccDes= 0.00D+00
 HarFok:  IExCor=  205 AccDes= 0.00D+00 IRadAn=         1 IDoV= 1
 ScaDFX=  1.000000  1.000000  1.000000  1.000000
 FoFCou: FMM=F IPFlag=           0 FMFlag=      100000 FMFlg1=           0
         NFxFlg=           0 DoJE=T BraDBF=F KetDBF=T FulRan=T
         Omega=  0.000000  0.000000  1.000000  0.000000  0.000000 ICntrl=     500 IOpCl=  0
         NMat0=    1 NMatS0=    1 NMatT0=    0 NMatD0=    1 NMtDS0=    0 NMtDT0=    0
         I1Cent=           4 NGrid=           0.
 Petite list used in FoFCou.
 Harris En= -345.763423608775    
 Initial guess orbital symmetries:
 Alpha Orbitals:
       Occupied  (A) (A) (A) (A) (A) (A) (A) (A) (A) (A) (A) (A)
                 (A) (A) (A) (A) (A) (A) (A) (A) (A) (A) (A) (A)
                 (A) (A) (A) (A) (A)
       Virtual   (A) (A) (A) (A) (A) (A) (A) (A) (A) (A) (A) (A)
                 (A) (A) (A) (A) (A) (A) (A) (A) (A) (A) (A) (A)
                 (A) (A) (A) (A) (A) (A) (A) (A) (A) (A) (A) (A)
                 (A) (A) (A) (A) (A) (A) (A) (A) (A) (A) (A) (A)
                 (A) (A) (A) (A) (A) (A) (A) (A) (A) (A) (A) (A)
                 (A) (A) (A) (A) (A) (A) (A) (A) (A) (A) (A) (A)
                 (A) (A) (A) (A) (A) (A) (A) (A) (A) (A) (A) (A)
                 (A) (A) (A) (A) (A) (A) (A) (A) (A) (A) (A) (A)
                 (A) (A)
 Beta  Orbitals:
       Occupied  (A) (A) (A) (A) (A) (A) (A) (A) (A) (A) (A) (A)
                 (A) (A) (A) (A) (A) (A) (A) (A) (A) (A) (A) (A)
                 (A) (A) (A) (A)
       Virtual   (A) (A) (A) (A) (A) (A) (A) (A) (A) (A) (A) (A)
                 (A) (A) (A) (A) (A) (A) (A) (A) (A) (A) (A) (A)
                 (A) (A) (A) (A) (A) (A) (A) (A) (A) (A) (A) (A)
                 (A) (A) (A) (A) (A) (A) (A) (A) (A) (A) (A) (A)
                 (A) (A) (A) (A) (A) (A) (A) (A) (A) (A) (A) (A)
                 (A) (A) (A) (A) (A) (A) (A) (A) (A) (A) (A) (A)
                 (A) (A) (A) (A) (A) (A) (A) (A) (A) (A) (A) (A)
                 (A) (A) (A) (A) (A) (A) (A) (A) (A) (A) (A) (A)
                 (A) (A) (A)
 The electronic state of the initial guess is 2-A.
 Initial guess <Sx>= 0.0000 <Sy>= 0.0000 <Sz>= 0.5000 <S**2>= 0.7500 S= 0.5000
 Leave Link  401 at Thu Apr 26 12:30:29 2018, MaxMem=  671088640 cpu:      43.4
 (Enter /shared/apps/gaussian/G09_LINUX_LINDA/g09/l502.exe)
 UHF open shell SCF:
 Requested convergence on RMS density matrix=1.00D-08 within 128 cycles.
 Requested convergence on MAX density matrix=1.00D-06.
 Requested convergence on             energy=1.00D-06.
 No special actions if energy rises.
 Using DIIS extrapolation, IDIIS=  1040.
 Integral symmetry usage will be decided dynamically.
 Keep R1 and R2 ints in memory in canonical form, NReq=67191093.
 IEnd=       70048 IEndB=       70048 NGot=   671088640 MDV=   604978949
 LenX=   604978949 LenY=   604962379
 Symmetry not used in FoFDir.
 MinBra= 0 MaxBra= 2 Meth= 1.
 IRaf=       0 NMat=   1 IRICut=       1 DoRegI=T DoRafI=F ISym2E= 0 JSym2E=0.

 Cycle   1  Pass 1  IDiag  1:
 E= -344.798826049168    
 DIIS: error= 5.67D-02 at cycle   1 NSaved=   1.
 NSaved= 1 IEnMin= 1 EnMin= -344.798826049168     IErMin= 1 ErrMin= 5.67D-02
 ErrMax= 5.67D-02 EMaxC= 1.00D-01 BMatC= 2.10D+00 BMatP= 2.10D+00
 IDIUse=3 WtCom= 4.33D-01 WtEn= 5.67D-01
 Coeff-Com:  0.100D+01
 Coeff-En:   0.100D+01
 Coeff:      0.100D+01
 Gap=     0.883 Goal=   None    Shift=    0.000
 Gap=     0.537 Goal=   None    Shift=    0.000
 GapD=    0.537 DampG=2.000 DampE=0.500 DampFc=1.0000 IDamp=-1.
 RMSDP=6.54D-03 MaxDP=1.23D-01              OVMax= 1.57D-01

 Cycle   2  Pass 1  IDiag  1:
 E= -345.128755459875     Delta-E=       -0.329929410707 Rises=F Damp=F
 DIIS: error= 2.11D-02 at cycle   2 NSaved=   2.
 NSaved= 2 IEnMin= 2 EnMin= -345.128755459875     IErMin= 2 ErrMin= 2.11D-02
 ErrMax= 2.11D-02 EMaxC= 1.00D-01 BMatC= 2.85D-01 BMatP= 2.10D+00
 IDIUse=3 WtCom= 7.89D-01 WtEn= 2.11D-01
 Coeff-Com:  0.202D+00 0.798D+00
 Coeff-En:   0.000D+00 0.100D+01
 Coeff:      0.160D+00 0.840D+00
 Gap=     0.511 Goal=   None    Shift=    0.000
 Gap=     0.381 Goal=   None    Shift=    0.000
 RMSDP=2.84D-03 MaxDP=4.27D-02 DE=-3.30D-01 OVMax= 7.98D-02

 Cycle   3  Pass 1  IDiag  1:
 E= -345.193177639834     Delta-E=       -0.064422179959 Rises=F Damp=F
 DIIS: error= 1.31D-02 at cycle   3 NSaved=   3.
 NSaved= 3 IEnMin= 3 EnMin= -345.193177639834     IErMin= 3 ErrMin= 1.31D-02
 ErrMax= 1.31D-02 EMaxC= 1.00D-01 BMatC= 2.42D-02 BMatP= 2.85D-01
 IDIUse=3 WtCom= 8.69D-01 WtEn= 1.31D-01
 Coeff-Com: -0.213D-01 0.170D+00 0.851D+00
 Coeff-En:   0.000D+00 0.000D+00 0.100D+01
 Coeff:     -0.185D-01 0.148D+00 0.871D+00
 Gap=     0.487 Goal=   None    Shift=    0.000
 Gap=     0.355 Goal=   None    Shift=    0.000
 RMSDP=6.71D-04 MaxDP=2.42D-02 DE=-6.44D-02 OVMax= 4.84D-02

 Cycle   4  Pass 1  IDiag  1:
 E= -345.200954367218     Delta-E=       -0.007776727384 Rises=F Damp=F
 DIIS: error= 4.41D-03 at cycle   4 NSaved=   4.
 NSaved= 4 IEnMin= 4 EnMin= -345.200954367218     IErMin= 4 ErrMin= 4.41D-03
 ErrMax= 4.41D-03 EMaxC= 1.00D-01 BMatC= 5.49D-03 BMatP= 2.42D-02
 IDIUse=3 WtCom= 9.56D-01 WtEn= 4.41D-02
 Coeff-Com: -0.150D-01 0.183D-01 0.328D+00 0.669D+00
 Coeff-En:   0.000D+00 0.000D+00 0.000D+00 0.100D+01
 Coeff:     -0.143D-01 0.175D-01 0.313D+00 0.684D+00
 Gap=     0.474 Goal=   None    Shift=    0.000
 Gap=     0.365 Goal=   None    Shift=    0.000
 RMSDP=2.54D-04 MaxDP=6.91D-03 DE=-7.78D-03 OVMax= 1.49D-02

 Cycle   5  Pass 1  IDiag  1:
 E= -345.202839048167     Delta-E=       -0.001884680949 Rises=F Damp=F
 DIIS: error= 5.78D-03 at cycle   5 NSaved=   5.
 NSaved= 5 IEnMin= 5 EnMin= -345.202839048167     IErMin= 4 ErrMin= 4.41D-03
 ErrMax= 5.78D-03 EMaxC= 1.00D-01 BMatC= 1.27D-03 BMatP= 5.49D-03
 IDIUse=3 WtCom= 9.42D-01 WtEn= 5.78D-02
 Coeff-Com:  0.669D-02-0.390D-01-0.211D+00-0.256D+00 0.150D+01
 Coeff-En:   0.000D+00 0.000D+00 0.000D+00 0.000D+00 0.100D+01
 Coeff:      0.631D-02-0.367D-01-0.199D+00-0.242D+00 0.147D+01
 Gap=     0.478 Goal=   None    Shift=    0.000
 Gap=     0.379 Goal=   None    Shift=    0.000
 RMSDP=3.25D-04 MaxDP=1.39D-02 DE=-1.88D-03 OVMax= 3.24D-02

 Cycle   6  Pass 1  IDiag  1:
 E= -345.204695000801     Delta-E=       -0.001855952634 Rises=F Damp=F
 DIIS: error= 3.61D-03 at cycle   6 NSaved=   6.
 NSaved= 6 IEnMin= 6 EnMin= -345.204695000801     IErMin= 6 ErrMin= 3.61D-03
 ErrMax= 3.61D-03 EMaxC= 1.00D-01 BMatC= 6.77D-04 BMatP= 1.27D-03
 IDIUse=3 WtCom= 9.64D-01 WtEn= 3.61D-02
 Coeff-Com:  0.234D-02 0.804D-02-0.165D-01-0.275D+00-0.174D+00 0.145D+01
 Coeff-En:   0.000D+00 0.000D+00 0.000D+00 0.000D+00 0.000D+00 0.100D+01
 Coeff:      0.226D-02 0.775D-02-0.159D-01-0.265D+00-0.167D+00 0.144D+01
 Gap=     0.480 Goal=   None    Shift=    0.000
 Gap=     0.384 Goal=   None    Shift=    0.000
 RMSDP=2.67D-04 MaxDP=1.22D-02 DE=-1.86D-03 OVMax= 3.52D-02

 Cycle   7  Pass 1  IDiag  1:
 E= -345.205673701684     Delta-E=       -0.000978700883 Rises=F Damp=F
 DIIS: error= 2.32D-03 at cycle   7 NSaved=   7.
 NSaved= 7 IEnMin= 7 EnMin= -345.205673701684     IErMin= 7 ErrMin= 2.32D-03
 ErrMax= 2.32D-03 EMaxC= 1.00D-01 BMatC= 2.12D-04 BMatP= 6.77D-04
 IDIUse=3 WtCom= 9.77D-01 WtEn= 2.32D-02
 Coeff-Com: -0.540D-02 0.310D-01 0.179D+00 0.207D+00-0.848D+00-0.330D+00
 Coeff-Com:  0.177D+01
 Coeff-En:   0.000D+00 0.000D+00 0.000D+00 0.000D+00 0.000D+00 0.000D+00
 Coeff-En:   0.100D+01
 Coeff:     -0.527D-02 0.303D-01 0.175D+00 0.202D+00-0.828D+00-0.322D+00
 Coeff:      0.175D+01
 Gap=     0.482 Goal=   None    Shift=    0.000
 Gap=     0.388 Goal=   None    Shift=    0.000
 RMSDP=2.32D-04 MaxDP=1.18D-02 DE=-9.79D-04 OVMax= 3.19D-02

 Cycle   8  Pass 1  IDiag  1:
 E= -345.206082204582     Delta-E=       -0.000408502898 Rises=F Damp=F
 DIIS: error= 5.57D-04 at cycle   8 NSaved=   8.
 NSaved= 8 IEnMin= 8 EnMin= -345.206082204582     IErMin= 8 ErrMin= 5.57D-04
 ErrMax= 5.57D-04 EMaxC= 1.00D-01 BMatC= 2.84D-05 BMatP= 2.12D-04
 IDIUse=3 WtCom= 9.94D-01 WtEn= 5.57D-03
 Coeff-Com:  0.746D-03-0.854D-02-0.378D-01 0.562D-02 0.241D+00-0.235D+00
 Coeff-Com: -0.352D+00 0.139D+01
 Coeff-En:   0.000D+00 0.000D+00 0.000D+00 0.000D+00 0.000D+00 0.000D+00
 Coeff-En:   0.000D+00 0.100D+01
 Coeff:      0.741D-03-0.849D-02-0.376D-01 0.559D-02 0.240D+00-0.233D+00
 Coeff:     -0.350D+00 0.138D+01
 Gap=     0.482 Goal=   None    Shift=    0.000
 Gap=     0.388 Goal=   None    Shift=    0.000
 RMSDP=6.88D-05 MaxDP=3.11D-03 DE=-4.09D-04 OVMax= 7.90D-03

 Cycle   9  Pass 1  IDiag  1:
 E= -345.206120453365     Delta-E=       -0.000038248783 Rises=F Damp=F
 DIIS: error= 1.77D-04 at cycle   9 NSaved=   9.
 NSaved= 9 IEnMin= 9 EnMin= -345.206120453365     IErMin= 9 ErrMin= 1.77D-04
 ErrMax= 1.77D-04 EMaxC= 1.00D-01 BMatC= 7.15D-06 BMatP= 2.84D-05
 IDIUse=3 WtCom= 9.98D-01 WtEn= 1.77D-03
 Coeff-Com:  0.699D-03-0.330D-02-0.199D-01-0.361D-01 0.920D-01 0.104D+00
 Coeff-Com: -0.213D+00-0.329D+00 0.140D+01
 Coeff-En:   0.000D+00 0.000D+00 0.000D+00 0.000D+00 0.000D+00 0.000D+00
 Coeff-En:   0.000D+00 0.000D+00 0.100D+01
 Coeff:      0.698D-03-0.329D-02-0.199D-01-0.360D-01 0.918D-01 0.104D+00
 Coeff:     -0.213D+00-0.329D+00 0.140D+01
 Gap=     0.482 Goal=   None    Shift=    0.000
 Gap=     0.388 Goal=   None    Shift=    0.000
 RMSDP=2.77D-05 MaxDP=1.04D-03 DE=-3.82D-05 OVMax= 1.63D-03

 Cycle  10  Pass 1  IDiag  1:
 E= -345.206128661114     Delta-E=       -0.000008207749 Rises=F Damp=F
 DIIS: error= 1.11D-04 at cycle  10 NSaved=  10.
 NSaved=10 IEnMin=10 EnMin= -345.206128661114     IErMin=10 ErrMin= 1.11D-04
 ErrMax= 1.11D-04 EMaxC= 1.00D-01 BMatC= 2.89D-06 BMatP= 7.15D-06
 IDIUse=3 WtCom= 9.99D-01 WtEn= 1.11D-03
 Coeff-Com: -0.262D-03 0.268D-02 0.125D-01-0.686D-04-0.745D-01 0.577D-01
 Coeff-Com:  0.113D+00-0.379D+00-0.103D+00 0.137D+01
 Coeff-En:   0.000D+00 0.000D+00 0.000D+00 0.000D+00 0.000D+00 0.000D+00
 Coeff-En:   0.000D+00 0.000D+00 0.000D+00 0.100D+01
 Coeff:     -0.262D-03 0.267D-02 0.125D-01-0.685D-04-0.744D-01 0.576D-01
 Coeff:      0.113D+00-0.379D+00-0.103D+00 0.137D+01
 Gap=     0.482 Goal=   None    Shift=    0.000
 Gap=     0.389 Goal=   None    Shift=    0.000
 RMSDP=2.12D-05 MaxDP=7.37D-04 DE=-8.21D-06 OVMax= 9.57D-04

 Cycle  11  Pass 1  IDiag  1:
 E= -345.206132435267     Delta-E=       -0.000003774154 Rises=F Damp=F
 DIIS: error= 5.94D-05 at cycle  11 NSaved=  11.
 NSaved=11 IEnMin=11 EnMin= -345.206132435267     IErMin=11 ErrMin= 5.94D-05
 ErrMax= 5.94D-05 EMaxC= 1.00D-01 BMatC= 1.07D-06 BMatP= 2.89D-06
 IDIUse=1 WtCom= 1.00D+00 WtEn= 0.00D+00
 Coeff-Com: -0.400D-03 0.216D-02 0.121D-01 0.199D-01-0.573D-01-0.506D-01
 Coeff-Com:  0.132D+00 0.122D+00-0.734D+00 0.127D+00 0.143D+01
 Coeff:     -0.400D-03 0.216D-02 0.121D-01 0.199D-01-0.573D-01-0.506D-01
 Coeff:      0.132D+00 0.122D+00-0.734D+00 0.127D+00 0.143D+01
 Gap=     0.482 Goal=   None    Shift=    0.000
 Gap=     0.389 Goal=   None    Shift=    0.000
 RMSDP=1.89D-05 MaxDP=5.79D-04 DE=-3.77D-06 OVMax= 7.75D-04

 Cycle  12  Pass 1  IDiag  1:
 E= -345.206134250498     Delta-E=       -0.000001815231 Rises=F Damp=F
 DIIS: error= 4.27D-05 at cycle  12 NSaved=  12.
 NSaved=12 IEnMin=12 EnMin= -345.206134250498     IErMin=12 ErrMin= 4.27D-05
 ErrMax= 4.27D-05 EMaxC= 1.00D-01 BMatC= 2.59D-07 BMatP= 1.07D-06
 IDIUse=1 WtCom= 1.00D+00 WtEn= 0.00D+00
 Coeff-Com:  0.817D-04-0.621D-03-0.346D-02-0.164D-02 0.183D-01-0.678D-02
 Coeff-Com: -0.280D-01 0.520D-01 0.951D-01-0.260D+00-0.156D+00 0.129D+01
 Coeff:      0.817D-04-0.621D-03-0.346D-02-0.164D-02 0.183D-01-0.678D-02
 Coeff:     -0.280D-01 0.520D-01 0.951D-01-0.260D+00-0.156D+00 0.129D+01
 Gap=     0.482 Goal=   None    Shift=    0.000
 Gap=     0.389 Goal=   None    Shift=    0.000
 RMSDP=7.44D-06 MaxDP=2.16D-04 DE=-1.82D-06 OVMax= 4.90D-04

 Cycle  13  Pass 1  IDiag  1:
 E= -345.206134732608     Delta-E=       -0.000000482109 Rises=F Damp=F
 DIIS: error= 4.04D-05 at cycle  13 NSaved=  13.
 NSaved=13 IEnMin=13 EnMin= -345.206134732608     IErMin=13 ErrMin= 4.04D-05
 ErrMax= 4.04D-05 EMaxC= 1.00D-01 BMatC= 1.66D-07 BMatP= 2.59D-07
 IDIUse=1 WtCom= 1.00D+00 WtEn= 0.00D+00
 Coeff-Com:  0.694D-04-0.394D-03-0.219D-02-0.330D-02 0.102D-01 0.795D-02
 Coeff-Com: -0.231D-01-0.170D-01 0.126D+00-0.295D-01-0.253D+00 0.565D-01
 Coeff-Com:  0.113D+01
 Coeff:      0.694D-04-0.394D-03-0.219D-02-0.330D-02 0.102D-01 0.795D-02
 Coeff:     -0.231D-01-0.170D-01 0.126D+00-0.295D-01-0.253D+00 0.565D-01
 Coeff:      0.113D+01
 Gap=     0.482 Goal=   None    Shift=    0.000
 Gap=     0.389 Goal=   None    Shift=    0.000
 RMSDP=4.46D-06 MaxDP=1.53D-04 DE=-4.82D-07 OVMax= 3.99D-04

 Cycle  14  Pass 1  IDiag  1:
 E= -345.206135048419     Delta-E=       -0.000000315811 Rises=F Damp=F
 DIIS: error= 4.10D-05 at cycle  14 NSaved=  14.
 NSaved=14 IEnMin=14 EnMin= -345.206135048419     IErMin=13 ErrMin= 4.04D-05
 ErrMax= 4.10D-05 EMaxC= 1.00D-01 BMatC= 1.52D-07 BMatP= 1.66D-07
 IDIUse=1 WtCom= 1.00D+00 WtEn= 0.00D+00
 Coeff-Com: -0.162D-05 0.299D-04 0.184D-03 0.186D-04-0.148D-02 0.184D-02
 Coeff-Com:  0.770D-03-0.680D-02-0.318D-02 0.315D-01-0.166D-02-0.157D+00
 Coeff-Com:  0.835D-01 0.105D+01
 Coeff:     -0.162D-05 0.299D-04 0.184D-03 0.186D-04-0.148D-02 0.184D-02
 Coeff:      0.770D-03-0.680D-02-0.318D-02 0.315D-01-0.166D-02-0.157D+00
 Coeff:      0.835D-01 0.105D+01
 Gap=     0.482 Goal=   None    Shift=    0.000
 Gap=     0.389 Goal=   None    Shift=    0.000
 RMSDP=3.64D-06 MaxDP=1.34D-04 DE=-3.16D-07 OVMax= 3.61D-04

 Cycle  15  Pass 1  IDiag  1:
 E= -345.206135321811     Delta-E=       -0.000000273392 Rises=F Damp=F
 DIIS: error= 4.18D-05 at cycle  15 NSaved=  15.
 NSaved=15 IEnMin=15 EnMin= -345.206135321811     IErMin=13 ErrMin= 4.04D-05
 ErrMax= 4.18D-05 EMaxC= 1.00D-01 BMatC= 1.55D-07 BMatP= 1.52D-07
 IDIUse=1 WtCom= 1.00D+00 WtEn= 0.00D+00
 Coeff-Com: -0.402D-04 0.299D-03 0.174D-02 0.147D-02-0.987D-02 0.262D-02
 Coeff-Com:  0.140D-01-0.181D-01-0.679D-01 0.126D+00 0.111D+00-0.596D+00
 Coeff-Com: -0.186D+00 0.381D+01-0.219D+01
 Coeff:     -0.402D-04 0.299D-03 0.174D-02 0.147D-02-0.987D-02 0.262D-02
 Coeff:      0.140D-01-0.181D-01-0.679D-01 0.126D+00 0.111D+00-0.596D+00
 Coeff:     -0.186D+00 0.381D+01-0.219D+01
 Gap=     0.482 Goal=   None    Shift=    0.000
 Gap=     0.389 Goal=   None    Shift=    0.000
 RMSDP=5.05D-06 MaxDP=1.91D-04 DE=-2.73D-07 OVMax= 5.09D-04

 Cycle  16  Pass 1  IDiag  1:
 E= -345.206134943415     Delta-E=        0.000000378395 Rises=F Damp=F
 DIIS: error= 4.02D-05 at cycle  16 NSaved=  16.
 NSaved=16 IEnMin=15 EnMin= -345.206135321811     IErMin=16 ErrMin= 4.02D-05
 ErrMax= 4.02D-05 EMaxC= 1.00D-01 BMatC= 1.46D-07 BMatP= 1.52D-07
 IDIUse=1 WtCom= 1.00D+00 WtEn= 0.00D+00
 Large coefficients: NSaved= 16 BigCof=   14.20 CofMax=   10.00 Det=-2.36D-10
 Inversion failed.  Reducing to 15 matrices.
 Large coefficients: NSaved= 15 BigCof=   14.12 CofMax=   10.00 Det=-2.67D-10
 Inversion failed.  Reducing to 14 matrices.
 Large coefficients: NSaved= 14 BigCof=   14.14 CofMax=   10.00 Det=-2.88D-10
 Inversion failed.  Reducing to 13 matrices.
 Large coefficients: NSaved= 13 BigCof=   13.15 CofMax=   10.00 Det=-3.45D-10
 Inversion failed.  Reducing to 12 matrices.
 Large coefficients: NSaved= 12 BigCof=   10.91 CofMax=   10.00 Det=-3.89D-10
 Inversion failed.  Reducing to 11 matrices.
 Large coefficients: NSaved= 11 BigCof=   10.91 CofMax=   10.00 Det=-4.03D-10
 Inversion failed.  Reducing to 10 matrices.
 Large coefficients: NSaved= 10 BigCof=   10.72 CofMax=   10.00 Det=-4.03D-10
 Inversion failed.  Reducing to  9 matrices.
 Large coefficients: NSaved=  9 BigCof=   10.36 CofMax=   10.00 Det=-4.06D-10
 Inversion failed.  Reducing to  8 matrices.
 Large coefficients: NSaved=  8 BigCof=   10.21 CofMax=   10.00 Det=-4.06D-10
 Inversion failed.  Reducing to  7 matrices.
 Large coefficients: NSaved=  7 BigCof=   10.07 CofMax=   10.00 Det=-5.71D-10
 Inversion failed.  Reducing to  6 matrices.
 Coeff-Com:  0.200D-01 0.134D+00-0.799D+00-0.210D+01-0.618D+01 0.993D+01
 Coeff:      0.200D-01 0.134D+00-0.799D+00-0.210D+01-0.618D+01 0.993D+01
 Gap=     0.482 Goal=   None    Shift=    0.000
 Gap=     0.389 Goal=   None    Shift=    0.000
 RMSDP=3.14D-05 MaxDP=1.19D-03 DE= 3.78D-07 OVMax= 3.18D-03

 Cycle  17  Pass 1  IDiag  1:
 E= -345.206132945917     Delta-E=        0.000001997498 Rises=F Damp=F
 DIIS: error= 3.03D-05 at cycle  17 NSaved=   7.
 NSaved= 7 IEnMin= 5 EnMin= -345.206135321811     IErMin= 7 ErrMin= 3.03D-05
 ErrMax= 3.03D-05 EMaxC= 1.00D-01 BMatC= 9.06D-08 BMatP= 1.46D-07
 IDIUse=1 WtCom= 1.00D+00 WtEn= 0.00D+00
 Coeff-Com: -0.597D-01 0.310D+00-0.203D-01-0.323D+01-0.362D+00 0.221D+01
 Coeff-Com:  0.216D+01
 Coeff:     -0.597D-01 0.310D+00-0.203D-01-0.323D+01-0.362D+00 0.221D+01
 Coeff:      0.216D+01
 Gap=     0.482 Goal=   None    Shift=    0.000
 Gap=     0.389 Goal=   None    Shift=    0.000
 RMSDP=4.32D-05 MaxDP=1.63D-03 DE= 2.00D-06 OVMax= 4.37D-03

 Cycle  18  Pass 1  IDiag  1:
 E= -345.206131187655     Delta-E=        0.000001758262 Rises=F Damp=F
 DIIS: error= 1.51D-05 at cycle  18 NSaved=   8.
 NSaved= 8 IEnMin= 5 EnMin= -345.206135321811     IErMin= 8 ErrMin= 1.51D-05
 ErrMax= 1.51D-05 EMaxC= 1.00D-01 BMatC= 3.90D-08 BMatP= 9.06D-08
 IDIUse=1 WtCom= 1.00D+00 WtEn= 0.00D+00
 Coeff-Com: -0.752D-01 0.838D-01 0.706D+00-0.590D+00 0.484D+01-0.610D+01
 Coeff-Com:  0.739D+00 0.140D+01
 Coeff:     -0.752D-01 0.838D-01 0.706D+00-0.590D+00 0.484D+01-0.610D+01
 Coeff:      0.739D+00 0.140D+01
 Gap=     0.482 Goal=   None    Shift=    0.000
 Gap=     0.389 Goal=   None    Shift=    0.000
 RMSDP=3.02D-05 MaxDP=1.14D-03 DE= 1.76D-06 OVMax= 3.06D-03

 Cycle  19  Pass 1  IDiag  1:
 E= -345.206130645440     Delta-E=        0.000000542215 Rises=F Damp=F
 DIIS: error= 8.86D-06 at cycle  19 NSaved=   9.
 NSaved= 9 IEnMin= 5 EnMin= -345.206135321811     IErMin= 9 ErrMin= 8.86D-06
 ErrMax= 8.86D-06 EMaxC= 1.00D-01 BMatC= 9.72D-09 BMatP= 3.90D-08
 IDIUse=1 WtCom= 1.00D+00 WtEn= 0.00D+00
 Coeff-Com:  0.683D-01-0.232D+00-0.197D+00 0.191D+01-0.145D+01 0.526D+00
 Coeff-Com: -0.830D+00-0.385D+00 0.159D+01
 Coeff:      0.683D-01-0.232D+00-0.197D+00 0.191D+01-0.145D+01 0.526D+00
 Coeff:     -0.830D+00-0.385D+00 0.159D+01
 Gap=     0.482 Goal=   None    Shift=    0.000
 Gap=     0.388 Goal=   None    Shift=    0.000
 RMSDP=1.07D-05 MaxDP=4.04D-04 DE= 5.42D-07 OVMax= 1.08D-03

 Cycle  20  Pass 1  IDiag  1:
 E= -345.206130592777     Delta-E=        0.000000052663 Rises=F Damp=F
 DIIS: error= 7.30D-06 at cycle  20 NSaved=  10.
 NSaved=10 IEnMin= 5 EnMin= -345.206135321811     IErMin=10 ErrMin= 7.30D-06
 ErrMax= 7.30D-06 EMaxC= 1.00D-01 BMatC= 3.31D-09 BMatP= 9.72D-09
 IDIUse=1 WtCom= 1.00D+00 WtEn= 0.00D+00
 Coeff-Com:  0.524D-01-0.882D-01-0.254D+00 0.460D+00-0.161D+01 0.181D+01
 Coeff-Com: -0.231D+00-0.492D+00 0.151D+00 0.121D+01
 Coeff:      0.524D-01-0.882D-01-0.254D+00 0.460D+00-0.161D+01 0.181D+01
 Coeff:     -0.231D+00-0.492D+00 0.151D+00 0.121D+01
 Gap=     0.482 Goal=   None    Shift=    0.000
 Gap=     0.388 Goal=   None    Shift=    0.000
 RMSDP=2.96D-06 MaxDP=1.12D-04 DE= 5.27D-08 OVMax= 2.95D-04

 Cycle  21  Pass 1  IDiag  1:
 E= -345.206130592454     Delta-E=        0.000000000323 Rises=F Damp=F
 DIIS: error= 5.67D-06 at cycle  21 NSaved=  11.
 NSaved=11 IEnMin= 5 EnMin= -345.206135321811     IErMin=11 ErrMin= 5.67D-06
 ErrMax= 5.67D-06 EMaxC= 1.00D-01 BMatC= 1.14D-09 BMatP= 3.31D-09
 IDIUse=1 WtCom= 1.00D+00 WtEn= 0.00D+00
 Coeff-Com: -0.367D-01 0.776D-01 0.140D+00-0.573D+00 0.785D+00-0.661D+00
 Coeff-Com:  0.296D+00 0.216D+00-0.402D+00-0.528D+00 0.169D+01
 Coeff:     -0.367D-01 0.776D-01 0.140D+00-0.573D+00 0.785D+00-0.661D+00
 Coeff:      0.296D+00 0.216D+00-0.402D+00-0.528D+00 0.169D+01
 Gap=     0.482 Goal=   None    Shift=    0.000
 Gap=     0.388 Goal=   None    Shift=    0.000
 RMSDP=1.03D-06 MaxDP=3.37D-05 DE= 3.23D-10 OVMax= 8.99D-05

 Cycle  22  Pass 1  IDiag  1:
 E= -345.206130594532     Delta-E=       -0.000000002079 Rises=F Damp=F
 DIIS: error= 4.30D-06 at cycle  22 NSaved=  12.
 NSaved=12 IEnMin= 5 EnMin= -345.206135321811     IErMin=12 ErrMin= 4.30D-06
 ErrMax= 4.30D-06 EMaxC= 1.00D-01 BMatC= 5.88D-10 BMatP= 1.14D-09
 IDIUse=1 WtCom= 1.00D+00 WtEn= 0.00D+00
 Coeff-Com: -0.264D-02 0.301D-02 0.137D-01 0.436D-01 0.838D-01-0.117D+00
 Coeff-Com: -0.656D-01 0.295D-01 0.145D+00-0.191D+00-0.640D+00 0.170D+01
 Coeff:     -0.264D-02 0.301D-02 0.137D-01 0.436D-01 0.838D-01-0.117D+00
 Coeff:     -0.656D-01 0.295D-01 0.145D+00-0.191D+00-0.640D+00 0.170D+01
 Gap=     0.482 Goal=   None    Shift=    0.000
 Gap=     0.388 Goal=   None    Shift=    0.000
 RMSDP=5.01D-07 MaxDP=1.79D-05 DE=-2.08D-09 OVMax= 4.13D-05

 Cycle  23  Pass 1  IDiag  1:
 E= -345.206130596066     Delta-E=       -0.000000001533 Rises=F Damp=F
 DIIS: error= 3.34D-06 at cycle  23 NSaved=  13.
 NSaved=13 IEnMin= 5 EnMin= -345.206135321811     IErMin=13 ErrMin= 3.34D-06
 ErrMax= 3.34D-06 EMaxC= 1.00D-01 BMatC= 3.55D-10 BMatP= 5.88D-10
 IDIUse=1 WtCom= 1.00D+00 WtEn= 0.00D+00
 Coeff-Com:  0.202D-01-0.434D-01-0.765D-01 0.257D+00-0.427D+00 0.383D+00
 Coeff-Com: -0.110D+00-0.106D+00 0.117D+00 0.325D+00-0.431D+00-0.926D+00
 Coeff-Com:  0.202D+01
 Coeff:      0.202D-01-0.434D-01-0.765D-01 0.257D+00-0.427D+00 0.383D+00
 Coeff:     -0.110D+00-0.106D+00 0.117D+00 0.325D+00-0.431D+00-0.926D+00
 Coeff:      0.202D+01
 Gap=     0.482 Goal=   None    Shift=    0.000
 Gap=     0.388 Goal=   None    Shift=    0.000
 RMSDP=4.47D-07 MaxDP=2.06D-05 DE=-1.53D-09 OVMax= 4.94D-05

 Cycle  24  Pass 1  IDiag  1:
 E= -345.206130597349     Delta-E=       -0.000000001284 Rises=F Damp=F
 DIIS: error= 2.49D-06 at cycle  24 NSaved=  14.
 NSaved=14 IEnMin= 5 EnMin= -345.206135321811     IErMin=14 ErrMin= 2.49D-06
 ErrMax= 2.49D-06 EMaxC= 1.00D-01 BMatC= 2.20D-10 BMatP= 3.55D-10
 IDIUse=1 WtCom= 1.00D+00 WtEn= 0.00D+00
 Coeff-Com: -0.639D-02 0.168D-01 0.198D-01-0.121D+00 0.138D+00-0.949D-01
 Coeff-Com:  0.578D-01 0.337D-01-0.108D+00-0.126D-01 0.399D+00-0.443D+00
 Coeff-Com: -0.735D+00 0.186D+01
 Coeff:     -0.639D-02 0.168D-01 0.198D-01-0.121D+00 0.138D+00-0.949D-01
 Coeff:      0.578D-01 0.337D-01-0.108D+00-0.126D-01 0.399D+00-0.443D+00
 Coeff:     -0.735D+00 0.186D+01
 Gap=     0.482 Goal=   None    Shift=    0.000
 Gap=     0.388 Goal=   None    Shift=    0.000
 RMSDP=3.85D-07 MaxDP=1.97D-05 DE=-1.28D-09 OVMax= 4.86D-05

 Cycle  25  Pass 1  IDiag  1:
 E= -345.206130598299     Delta-E=       -0.000000000949 Rises=F Damp=F
 DIIS: error= 1.83D-06 at cycle  25 NSaved=  15.
 NSaved=15 IEnMin= 5 EnMin= -345.206135321811     IErMin=15 ErrMin= 1.83D-06
 ErrMax= 1.83D-06 EMaxC= 1.00D-01 BMatC= 1.49D-10 BMatP= 2.20D-10
 IDIUse=1 WtCom= 1.00D+00 WtEn= 0.00D+00
 Coeff-Com: -0.882D-02 0.183D-01 0.270D-01-0.760D-01 0.150D+00-0.137D+00
 Coeff-Com:  0.143D-01 0.409D-01 0.101D-01-0.166D+00-0.999D-01 0.105D+01
 Coeff-Com: -0.867D+00-0.132D+01 0.236D+01
 Coeff:     -0.882D-02 0.183D-01 0.270D-01-0.760D-01 0.150D+00-0.137D+00
 Coeff:      0.143D-01 0.409D-01 0.101D-01-0.166D+00-0.999D-01 0.105D+01
 Coeff:     -0.867D+00-0.132D+01 0.236D+01
 Gap=     0.482 Goal=   None    Shift=    0.000
 Gap=     0.388 Goal=   None    Shift=    0.000
 RMSDP=4.02D-07 MaxDP=2.11D-05 DE=-9.49D-10 OVMax= 5.38D-05

 Cycle  26  Pass 1  IDiag  1:
 E= -345.206130599123     Delta-E=       -0.000000000825 Rises=F Damp=F
 DIIS: error= 1.30D-06 at cycle  26 NSaved=  16.
 NSaved=16 IEnMin= 5 EnMin= -345.206135321811     IErMin=16 ErrMin= 1.30D-06
 ErrMax= 1.30D-06 EMaxC= 1.00D-01 BMatC= 9.12D-11 BMatP= 1.49D-10
 IDIUse=1 WtCom= 1.00D+00 WtEn= 0.00D+00
 Coeff-Com:  0.167D-01-0.366D-01-0.510D-01 0.200D+00-0.309D+00 0.258D+00
 Coeff-Com: -0.725D-01-0.840D-01 0.104D+00 0.194D+00-0.342D+00-0.547D+00
 Coeff-Com:  0.151D+01-0.438D+00-0.238D+01 0.297D+01
 Coeff:      0.167D-01-0.366D-01-0.510D-01 0.200D+00-0.309D+00 0.258D+00
 Coeff:     -0.725D-01-0.840D-01 0.104D+00 0.194D+00-0.342D+00-0.547D+00
 Coeff:      0.151D+01-0.438D+00-0.238D+01 0.297D+01
 Gap=     0.482 Goal=   None    Shift=    0.000
 Gap=     0.388 Goal=   None    Shift=    0.000
 RMSDP=5.53D-07 MaxDP=2.91D-05 DE=-8.25D-10 OVMax= 7.46D-05

 Cycle  27  Pass 1  IDiag  1:
 E= -345.206130599887     Delta-E=       -0.000000000764 Rises=F Damp=F
 DIIS: error= 7.12D-07 at cycle  27 NSaved=  17.
 NSaved=17 IEnMin= 5 EnMin= -345.206135321811     IErMin=17 ErrMin= 7.12D-07
 ErrMax= 7.12D-07 EMaxC= 1.00D-01 BMatC= 3.27D-11 BMatP= 9.12D-11
 IDIUse=1 WtCom= 1.00D+00 WtEn= 0.00D+00
 Coeff-Com: -0.154D-02 0.234D-02 0.114D-01-0.284D-01 0.523D-01-0.567D-01
 Coeff-Com:  0.267D-01 0.833D-02-0.387D-01 0.375D-02 0.185D+00-0.414D+00
 Coeff-Com: -0.591D-01 0.102D+01-0.580D+00-0.115D+01 0.203D+01
 Coeff:     -0.154D-02 0.234D-02 0.114D-01-0.284D-01 0.523D-01-0.567D-01
 Coeff:      0.267D-01 0.833D-02-0.387D-01 0.375D-02 0.185D+00-0.414D+00
 Coeff:     -0.591D-01 0.102D+01-0.580D+00-0.115D+01 0.203D+01
 Gap=     0.482 Goal=   None    Shift=    0.000
 Gap=     0.388 Goal=   None    Shift=    0.000
 RMSDP=4.21D-07 MaxDP=2.19D-05 DE=-7.64D-10 OVMax= 5.66D-05

 Cycle  28  Pass 1  IDiag  1:
 E= -345.206130600157     Delta-E=       -0.000000000270 Rises=F Damp=F
 DIIS: error= 2.91D-07 at cycle  28 NSaved=  18.
 NSaved=18 IEnMin= 5 EnMin= -345.206135321811     IErMin=18 ErrMin= 2.91D-07
 ErrMax= 2.91D-07 EMaxC= 1.00D-01 BMatC= 6.99D-12 BMatP= 3.27D-11
 IDIUse=1 WtCom= 1.00D+00 WtEn= 0.00D+00
 Coeff-Com: -0.325D-02 0.647D-02 0.103D-01-0.264D-01 0.622D-01-0.642D-01
 Coeff-Com:  0.124D-01 0.158D-01-0.800D-02-0.590D-01 0.222D-01 0.327D+00
 Coeff-Com: -0.437D+00-0.246D+00 0.966D+00-0.541D+00-0.682D+00 0.164D+01
 Coeff:     -0.325D-02 0.647D-02 0.103D-01-0.264D-01 0.622D-01-0.642D-01
 Coeff:      0.124D-01 0.158D-01-0.800D-02-0.590D-01 0.222D-01 0.327D+00
 Coeff:     -0.437D+00-0.246D+00 0.966D+00-0.541D+00-0.682D+00 0.164D+01
 Gap=     0.482 Goal=   None    Shift=    0.000
 Gap=     0.388 Goal=   None    Shift=    0.000
 RMSDP=1.44D-07 MaxDP=7.18D-06 DE=-2.70D-10 OVMax= 1.89D-05

 Cycle  29  Pass 1  IDiag  1:
 E= -345.206130600188     Delta-E=       -0.000000000031 Rises=F Damp=F
 DIIS: error= 1.00D-07 at cycle  29 NSaved=  19.
 NSaved=19 IEnMin= 5 EnMin= -345.206135321811     IErMin=19 ErrMin= 1.00D-07
 ErrMax= 1.00D-07 EMaxC= 1.00D-01 BMatC= 1.28D-12 BMatP= 6.99D-12
 IDIUse=1 WtCom= 1.00D+00 WtEn= 0.00D+00
 Coeff-Com:  0.131D-02-0.282D-02-0.492D-02 0.170D-01-0.296D-01 0.269D-01
 Coeff-Com: -0.777D-02-0.769D-02 0.119D-01 0.134D-01-0.496D-01 0.237D-01
 Coeff-Com:  0.107D+00-0.173D+00-0.731D-01 0.357D+00-0.273D+00-0.386D+00
 Coeff-Com:  0.145D+01
 Coeff:      0.131D-02-0.282D-02-0.492D-02 0.170D-01-0.296D-01 0.269D-01
 Coeff:     -0.777D-02-0.769D-02 0.119D-01 0.134D-01-0.496D-01 0.237D-01
 Coeff:      0.107D+00-0.173D+00-0.731D-01 0.357D+00-0.273D+00-0.386D+00
 Coeff:      0.145D+01
 Gap=     0.482 Goal=   None    Shift=    0.000
 Gap=     0.388 Goal=   None    Shift=    0.000
 RMSDP=3.65D-08 MaxDP=1.59D-06 DE=-3.09D-11 OVMax= 4.38D-06

 Cycle  30  Pass 1  IDiag  1:
 E= -345.206130600193     Delta-E=       -0.000000000005 Rises=F Damp=F
 DIIS: error= 4.16D-08 at cycle  30 NSaved=  20.
 NSaved=20 IEnMin= 5 EnMin= -345.206135321811     IErMin=20 ErrMin= 4.16D-08
 ErrMax= 4.16D-08 EMaxC= 1.00D-01 BMatC= 2.33D-13 BMatP= 1.28D-12
 IDIUse=1 WtCom= 1.00D+00 WtEn= 0.00D+00
 Coeff-Com:  0.619D-03-0.136D-02-0.155D-02 0.512D-02-0.111D-01 0.107D-01
 Coeff-Com: -0.170D-02-0.326D-02 0.188D-02 0.110D-01-0.382D-02-0.680D-01
 Coeff-Com:  0.895D-01 0.608D-01-0.215D+00 0.111D+00 0.162D+00-0.358D+00
 Coeff-Com: -0.354D-01 0.125D+01
 Coeff:      0.619D-03-0.136D-02-0.155D-02 0.512D-02-0.111D-01 0.107D-01
 Coeff:     -0.170D-02-0.326D-02 0.188D-02 0.110D-01-0.382D-02-0.680D-01
 Coeff:      0.895D-01 0.608D-01-0.215D+00 0.111D+00 0.162D+00-0.358D+00
 Coeff:     -0.354D-01 0.125D+01
 Gap=     0.482 Goal=   None    Shift=    0.000
 Gap=     0.388 Goal=   None    Shift=    0.000
 RMSDP=9.88D-09 MaxDP=3.57D-07 DE=-5.12D-12 OVMax= 9.95D-07

 SCF Done:  E(UHF) =  -345.206130600     A.U. after   30 cycles
             Convg  =    0.9878D-08             -V/T =  2.0021
 <Sx>= 0.0000 <Sy>= 0.0000 <Sz>= 0.5000 <S**2>= 0.7616 S= 0.5058
 <L.S>= 0.000000000000E+00
 KE= 3.444849369925D+02 PE=-1.387117445661D+03 EE= 4.087112645210D+02
 Annihilation of the first spin contaminant:
 S**2 before annihilation     0.7616,   after     0.7501
 Leave Link  502 at Thu Apr 26 12:31:36 2018, MaxMem=  671088640 cpu:     665.9
 (Enter /shared/apps/gaussian/G09_LINUX_LINDA/g09/l601.exe)
 Copying SCF densities to generalized density rwf, IOpCl= 1 IROHF=0.

 **********************************************************************

            Population analysis using the SCF density.

 **********************************************************************

 Orbital symmetries:
 Alpha Orbitals:
       Occupied  (A) (A) (A) (A) (A) (A) (A) (A) (A) (A) (A) (A)
                 (A) (A) (A) (A) (A) (A) (A) (A) (A) (A) (A) (A)
                 (A) (A) (A) (A) (A)
       Virtual   (A) (A) (A) (A) (A) (A) (A) (A) (A) (A) (A) (A)
                 (A) (A) (A) (A) (A) (A) (A) (A) (A) (A) (A) (A)
                 (A) (A) (A) (A) (A) (A) (A) (A) (A) (A) (A) (A)
                 (A) (A) (A) (A) (A) (A) (A) (A) (A) (A) (A) (A)
                 (A) (A) (A) (A) (A) (A) (A) (A) (A) (A) (A) (A)
                 (A) (A) (A) (A) (A) (A) (A) (A) (A) (A) (A) (A)
                 (A) (A) (A) (A) (A) (A) (A) (A) (A) (A) (A) (A)
                 (A) (A) (A) (A) (A) (A) (A) (A) (A) (A) (A) (A)
                 (A) (A)
 Beta  Orbitals:
       Occupied  (A) (A) (A) (A) (A) (A) (A) (A) (A) (A) (A) (A)
                 (A) (A) (A) (A) (A) (A) (A) (A) (A) (A) (A) (A)
                 (A) (A) (A) (A)
       Virtual   (A) (A) (A) (A) (A) (A) (A) (A) (A) (A) (A) (A)
                 (A) (A) (A) (A) (A) (A) (A) (A) (A) (A) (A) (A)
                 (A) (A) (A) (A) (A) (A) (A) (A) (A) (A) (A) (A)
                 (A) (A) (A) (A) (A) (A) (A) (A) (A) (A) (A) (A)
                 (A) (A) (A) (A) (A) (A) (A) (A) (A) (A) (A) (A)
                 (A) (A) (A) (A) (A) (A) (A) (A) (A) (A) (A) (A)
                 (A) (A) (A) (A) (A) (A) (A) (A) (A) (A) (A) (A)
                 (A) (A) (A) (A) (A) (A) (A) (A) (A) (A) (A) (A)
                 (A) (A) (A)
 The electronic state is 2-A.
 Alpha  occ. eigenvalues --  -20.71820 -20.70224 -11.21212 -11.21150 -11.20981
 Alpha  occ. eigenvalues --  -11.19673 -11.19608  -1.60868  -1.24512  -1.07442
 Alpha  occ. eigenvalues --   -0.95815  -0.92098  -0.84564  -0.80335  -0.78091
 Alpha  occ. eigenvalues --   -0.72965  -0.67773  -0.60001  -0.57392  -0.56663
 Alpha  occ. eigenvalues --   -0.54954  -0.54469  -0.53362  -0.51629  -0.49828
 Alpha  occ. eigenvalues --   -0.49372  -0.44700  -0.40559  -0.30088
 Alpha virt. eigenvalues --    0.18106   0.18912   0.24669   0.27134   0.28520
 Alpha virt. eigenvalues --    0.29895   0.31117   0.33892   0.34081   0.35434
 Alpha virt. eigenvalues --    0.35882   0.41405   0.42975   0.45003   0.49779
 Alpha virt. eigenvalues --    0.54588   0.57074   0.73295   0.74730   0.75034
 Alpha virt. eigenvalues --    0.79927   0.80452   0.83395   0.86839   0.89848
 Alpha virt. eigenvalues --    0.90651   0.92373   0.95569   0.98604   1.01286
 Alpha virt. eigenvalues --    1.03494   1.04281   1.05627   1.07444   1.08053
 Alpha virt. eigenvalues --    1.09209   1.15316   1.15940   1.16447   1.17942
 Alpha virt. eigenvalues --    1.18955   1.19199   1.19628   1.20724   1.22239
 Alpha virt. eigenvalues --    1.24096   1.26779   1.30760   1.33870   1.41765
 Alpha virt. eigenvalues --    1.48486   1.54208   1.60738   1.62727   1.65409
 Alpha virt. eigenvalues --    1.69972   1.71260   1.74438   1.80061   1.83102
 Alpha virt. eigenvalues --    1.85630   1.96207   1.99040   2.11351   2.13427
 Alpha virt. eigenvalues --    2.15266   2.18179   2.20417   2.24796   2.25786
 Alpha virt. eigenvalues --    2.38594   2.41571   2.44918   2.49370   2.53157
 Alpha virt. eigenvalues --    2.54120   2.59937   2.63221   2.64198   2.67475
 Alpha virt. eigenvalues --    2.70744   2.73409   2.74615   2.76238   2.87908
 Alpha virt. eigenvalues --    2.88952   2.92174   3.03707   3.25565   3.26569
 Alpha virt. eigenvalues --    3.39948   3.81199   4.13988   4.55491   4.63271
 Alpha virt. eigenvalues --    4.71972   4.77754   4.99201
  Beta  occ. eigenvalues --  -20.69370 -20.67948 -11.21232 -11.21158 -11.20977
  Beta  occ. eigenvalues --  -11.19623 -11.19436  -1.54507  -1.15257  -1.07396
  Beta  occ. eigenvalues --   -0.95441  -0.92079  -0.83783  -0.78606  -0.71375
  Beta  occ. eigenvalues --   -0.67738  -0.59929  -0.58974  -0.57364  -0.56524
  Beta  occ. eigenvalues --   -0.53405  -0.51676  -0.51163  -0.49782  -0.49310
  Beta  occ. eigenvalues --   -0.44644  -0.40086  -0.30068
  Beta virt. eigenvalues --    0.08781   0.18457   0.18979   0.24836   0.27189
  Beta virt. eigenvalues --    0.29499   0.30687   0.31423   0.34131   0.34928
  Beta virt. eigenvalues --    0.35558   0.35918   0.41473   0.43084   0.45233
  Beta virt. eigenvalues --    0.50364   0.55584   0.57275   0.73383   0.74942
  Beta virt. eigenvalues --    0.75083   0.80392   0.81081   0.83699   0.86917
  Beta virt. eigenvalues --    0.90216   0.91476   0.93162   0.96492   0.98854
  Beta virt. eigenvalues --    1.01305   1.04100   1.05257   1.06213   1.08137
  Beta virt. eigenvalues --    1.09256   1.12394   1.15718   1.16258   1.16995
  Beta virt. eigenvalues --    1.18266   1.19260   1.19536   1.20690   1.21548
  Beta virt. eigenvalues --    1.23789   1.25468   1.30936   1.31391   1.34440
  Beta virt. eigenvalues --    1.41932   1.49283   1.54335   1.62867   1.64355
  Beta virt. eigenvalues --    1.65902   1.71020   1.71877   1.74986   1.81703
  Beta virt. eigenvalues --    1.85870   1.86301   1.98273   2.06253   2.11653
  Beta virt. eigenvalues --    2.15085   2.18156   2.19296   2.20467   2.24798
  Beta virt. eigenvalues --    2.26063   2.38832   2.42055   2.45734   2.49525
  Beta virt. eigenvalues --    2.53278   2.54282   2.61245   2.63357   2.64555
  Beta virt. eigenvalues --    2.67515   2.70759   2.74035   2.75443   2.77708
  Beta virt. eigenvalues --    2.88690   2.90567   2.93524   3.03865   3.25631
  Beta virt. eigenvalues --    3.28159   3.40070   3.82788   4.16539   4.55506
  Beta virt. eigenvalues --    4.63350   4.71989   4.77903   4.99238
          Condensed to atoms (all electrons):
              1          2          3          4          5          6
     1  O    8.378206   0.041880   0.006248   0.000117  -0.084932   0.000000
     2  O    0.041880   8.051641  -0.000290  -0.000001   0.003835   0.000000
     3  C    0.006248  -0.000290   5.032199   0.692398   0.321239  -0.061048
     4  C    0.000117  -0.000001   0.692398   4.936099  -0.053864   0.335933
     5  C   -0.084932   0.003835   0.321239  -0.053864   5.239956   0.002971
     6  C    0.000000   0.000000  -0.061048   0.335933   0.002971   5.105992
     7  C    0.000001   0.000000  -0.063398   0.345612  -0.013859  -0.050939
     8  H   -0.030159   0.251754   0.000022   0.000000  -0.000374   0.000000
     9  H    0.002148  -0.000123   0.396250  -0.044832  -0.041822  -0.003032
    10  H   -0.189149   0.020739  -0.035934   0.001473   0.424352  -0.000057
    11  H    0.001931  -0.000044  -0.044804  -0.006142   0.382466  -0.000068
    12  H    0.001314  -0.000067  -0.046748  -0.004632   0.383157   0.000012
    13  H    0.000000   0.000000  -0.004479  -0.040841  -0.000038   0.388390
    14  H    0.000000   0.000000  -0.006685  -0.039171  -0.000025   0.391513
    15  H    0.000000   0.000000   0.003788  -0.040082  -0.000087   0.391904
    16  H    0.000000   0.000000  -0.007327  -0.041137  -0.001531   0.002820
    17  H    0.000000   0.000000   0.003767  -0.037756   0.000447  -0.005246
    18  H    0.000001   0.000000  -0.006486  -0.041591   0.000478   0.003235
              7          8          9         10         11         12
     1  O    0.000001  -0.030159   0.002148  -0.189149   0.001931   0.001314
     2  O    0.000000   0.251754  -0.000123   0.020739  -0.000044  -0.000067
     3  C   -0.063398   0.000022   0.396250  -0.035934  -0.044804  -0.046748
     4  C    0.345612   0.000000  -0.044832   0.001473  -0.006142  -0.004632
     5  C   -0.013859  -0.000374  -0.041822   0.424352   0.382466   0.383157
     6  C   -0.050939   0.000000  -0.003032  -0.000057  -0.000068   0.000012
     7  C    5.120730   0.000000   0.003746   0.000104   0.000308  -0.001093
     8  H    0.000000   0.304157   0.000010  -0.002659   0.000006   0.000021
     9  H    0.003746   0.000010   0.521597  -0.004923   0.002046   0.003338
    10  H    0.000104  -0.002659  -0.004923   0.549953  -0.021060  -0.017527
    11  H    0.000308   0.000006   0.002046  -0.021060   0.556795  -0.030735
    12  H   -0.001093   0.000021   0.003338  -0.017527  -0.030735   0.565780
    13  H    0.003124   0.000000   0.001372   0.000006  -0.000015   0.000024
    14  H    0.002795   0.000000   0.000887  -0.000005   0.000062  -0.000015
    15  H   -0.005028   0.000000   0.000035   0.000001   0.000002   0.000004
    16  H    0.392026   0.000000  -0.000066   0.000040  -0.000505   0.003108
    17  H    0.390315   0.000000  -0.000094  -0.000002  -0.000024   0.000157
    18  H    0.389684   0.000000  -0.000090  -0.000045   0.002937  -0.003789
             13         14         15         16         17         18
     1  O    0.000000   0.000000   0.000000   0.000000   0.000000   0.000001
     2  O    0.000000   0.000000   0.000000   0.000000   0.000000   0.000000
     3  C   -0.004479  -0.006685   0.003788  -0.007327   0.003767  -0.006486
     4  C   -0.040841  -0.039171  -0.040082  -0.041137  -0.037756  -0.041591
     5  C   -0.000038  -0.000025  -0.000087  -0.001531   0.000447   0.000478
     6  C    0.388390   0.391513   0.391904   0.002820  -0.005246   0.003235
     7  C    0.003124   0.002795  -0.005028   0.392026   0.390315   0.389684
     8  H    0.000000   0.000000   0.000000   0.000000   0.000000   0.000000
     9  H    0.001372   0.000887   0.000035  -0.000066  -0.000094  -0.000090
    10  H    0.000006  -0.000005   0.000001   0.000040  -0.000002  -0.000045
    11  H   -0.000015   0.000062   0.000002  -0.000505  -0.000024   0.002937
    12  H    0.000024  -0.000015   0.000004   0.003108   0.000157  -0.003789
    13  H    0.533319  -0.024161  -0.025539  -0.000124   0.000141  -0.000108
    14  H   -0.024161   0.529879  -0.027409  -0.000095   0.000174  -0.000100
    15  H   -0.025539  -0.027409   0.543297   0.000198   0.002106   0.000099
    16  H   -0.000124  -0.000095   0.000198   0.535575  -0.026390  -0.026846
    17  H    0.000141   0.000174   0.002106  -0.026390   0.541840  -0.025469
    18  H   -0.000108  -0.000100   0.000099  -0.026846  -0.025469   0.536275
 Mulliken atomic charges:
              1
     1  O   -0.127606
     2  O   -0.369325
     3  C   -0.178712
     4  C    0.038417
     5  C   -0.562369
     6  C   -0.502380
     7  C   -0.514128
     8  H    0.477221
     9  H    0.163554
    10  H    0.274692
    11  H    0.156843
    12  H    0.147691
    13  H    0.168930
    14  H    0.172356
    15  H    0.156709
    16  H    0.170255
    17  H    0.156033
    18  H    0.171817
 Sum of Mulliken atomic charges =   0.00000
 Mulliken charges with hydrogens summed into heavy atoms:
              1
     1  O    0.147086
     2  O    0.107896
     3  C   -0.015158
     4  C    0.038417
     5  C   -0.257836
     6  C   -0.004384
     7  C   -0.016022
 Sum of Mulliken charges with hydrogens summed into heavy atoms =   0.00000
          Atomic-Atomic Spin Densities.
              1          2          3          4          5          6
     1  O    1.019132  -0.107820   0.000959  -0.000016  -0.007548   0.000000
     2  O   -0.107820   0.212042  -0.000049   0.000000   0.000355   0.000000
     3  C    0.000959  -0.000049   0.015773   0.003244  -0.005547  -0.000405
     4  C   -0.000016   0.000000   0.003244  -0.026205  -0.000034   0.000938
     5  C   -0.007548   0.000355  -0.005547  -0.000034   0.081082   0.000070
     6  C    0.000000   0.000000  -0.000405   0.000938   0.000070   0.002790
     7  C    0.000000   0.000000   0.000207   0.000892  -0.000592  -0.000029
     8  H    0.001121  -0.002881  -0.000001   0.000000   0.000023   0.000000
     9  H   -0.000107  -0.000001   0.000250   0.000088  -0.000046   0.000023
    10  H   -0.024504   0.001426   0.000283  -0.000207   0.008474  -0.000001
    11  H    0.000332  -0.000008  -0.000825   0.000022  -0.002805   0.000010
    12  H   -0.000048   0.000004  -0.000584   0.000283   0.000630  -0.000002
    13  H    0.000000   0.000000   0.000005   0.000370  -0.000003  -0.000255
    14  H    0.000000   0.000000  -0.000025   0.000323   0.000003  -0.000202
    15  H    0.000000   0.000000   0.000015   0.000087  -0.000003  -0.000125
    16  H    0.000000   0.000000   0.000050   0.000324  -0.000063  -0.000010
    17  H    0.000000   0.000000  -0.000019   0.000091   0.000010  -0.000002
    18  H    0.000000   0.000000  -0.000108   0.000370   0.000149   0.000005
              7          8          9         10         11         12
     1  O    0.000000   0.001121  -0.000107  -0.024504   0.000332  -0.000048
     2  O    0.000000  -0.002881  -0.000001   0.001426  -0.000008   0.000004
     3  C    0.000207  -0.000001   0.000250   0.000283  -0.000825  -0.000584
     4  C    0.000892   0.000000   0.000088  -0.000207   0.000022   0.000283
     5  C   -0.000592   0.000023  -0.000046   0.008474  -0.002805   0.000630
     6  C   -0.000029   0.000000   0.000023  -0.000001   0.000010  -0.000002
     7  C    0.002727   0.000000  -0.000012   0.000016  -0.000111   0.000064
     8  H    0.000000  -0.010508  -0.000001   0.000193   0.000000  -0.000003
     9  H   -0.000012  -0.000001  -0.001329   0.000329   0.000048  -0.000080
    10  H    0.000016   0.000193   0.000329  -0.023065  -0.001456   0.001816
    11  H   -0.000111   0.000000   0.000048  -0.001456   0.005381  -0.000011
    12  H    0.000064  -0.000003  -0.000080   0.001816  -0.000011  -0.008090
    13  H   -0.000004   0.000000  -0.000004   0.000000   0.000000   0.000000
    14  H   -0.000006   0.000000   0.000008   0.000000   0.000001   0.000000
    15  H   -0.000010   0.000000  -0.000001   0.000000   0.000000   0.000000
    16  H   -0.000162   0.000000   0.000000  -0.000004  -0.000004   0.000061
    17  H   -0.000112   0.000000   0.000000   0.000000   0.000002  -0.000005
    18  H   -0.000361   0.000000   0.000001   0.000000   0.000051   0.000002
             13         14         15         16         17         18
     1  O    0.000000   0.000000   0.000000   0.000000   0.000000   0.000000
     2  O    0.000000   0.000000   0.000000   0.000000   0.000000   0.000000
     3  C    0.000005  -0.000025   0.000015   0.000050  -0.000019  -0.000108
     4  C    0.000370   0.000323   0.000087   0.000324   0.000091   0.000370
     5  C   -0.000003   0.000003  -0.000003  -0.000063   0.000010   0.000149
     6  C   -0.000255  -0.000202  -0.000125  -0.000010  -0.000002   0.000005
     7  C   -0.000004  -0.000006  -0.000010  -0.000162  -0.000112  -0.000361
     8  H    0.000000   0.000000   0.000000   0.000000   0.000000   0.000000
     9  H   -0.000004   0.000008  -0.000001   0.000000   0.000000   0.000001
    10  H    0.000000   0.000000   0.000000  -0.000004   0.000000   0.000000
    11  H    0.000000   0.000001   0.000000  -0.000004   0.000002   0.000051
    12  H    0.000000   0.000000   0.000000   0.000061  -0.000005   0.000002
    13  H   -0.000969   0.000170   0.000022  -0.000004   0.000000   0.000001
    14  H    0.000170  -0.000946   0.000013   0.000002   0.000001  -0.000003
    15  H    0.000022   0.000013  -0.000123   0.000000  -0.000010  -0.000001
    16  H   -0.000004   0.000002   0.000000  -0.001060   0.000013   0.000170
    17  H    0.000000   0.000001  -0.000010   0.000013  -0.000103   0.000041
    18  H    0.000001  -0.000003  -0.000001   0.000170   0.000041  -0.000971
 Mulliken atomic spin densities:
              1
     1  O    0.881501
     2  O    0.103068
     3  C    0.013224
     4  C   -0.019430
     5  C    0.074154
     6  C    0.002806
     7  C    0.002507
     8  H   -0.012057
     9  H   -0.000834
    10  H   -0.036699
    11  H    0.000627
    12  H   -0.005962
    13  H   -0.000672
    14  H   -0.000663
    15  H   -0.000135
    16  H   -0.000688
    17  H   -0.000093
    18  H   -0.000653
 Sum of Mulliken atomic spin densities =   1.00000
 Electronic spatial extent (au):  <R**2>=           1521.1170
 Charge=              0.0000 electrons
 Dipole moment (field-independent basis, Debye):
    X=             -2.6657    Y=             -0.8338    Z=             -1.0102  Tot=              2.9701
 Quadrupole moment (field-independent basis, Debye-Ang):
   XX=            -29.2229   YY=            -46.2704   ZZ=            -44.8764
   XY=              4.4112   XZ=              3.7340   YZ=              0.9273
 Traceless Quadrupole moment (field-independent basis, Debye-Ang):
   XX=             10.9004   YY=             -6.1472   ZZ=             -4.7532
   XY=              4.4112   XZ=              3.7340   YZ=              0.9273
 Octapole moment (field-independent basis, Debye-Ang**2):
  XXX=           -110.1826  YYY=              4.3129  ZZZ=             -2.1153  XYY=             -8.8684
  XXY=            -17.8639  XXZ=            -20.0145  XZZ=            -16.0014  YZZ=             -0.1550
  YYZ=             -0.2254  XYZ=             -2.7739
 Hexadecapole moment (field-independent basis, Debye-Ang**3):
 XXXX=          -1104.5107 YYYY=           -310.9590 ZZZZ=            -91.2483 XXXY=             69.1329
 XXXZ=             90.2941 YYYX=             -7.4191 YYYZ=             -1.1420 ZZZX=             10.3327
 ZZZY=              0.2338 XXYY=           -322.2092 XXZZ=           -252.4591 YYZZ=            -63.2761
 XXYZ=              9.6777 YYXZ=              3.2841 ZZXY=             -0.4224
 N-N= 2.887151135470D+02 E-N=-2.071138820325D+03  KE= 5.150316779243D+02
                          Isotropic Fermi Contact Couplings
        Atom                 a.u.       MegaHertz       Gauss      10(-4) cm-1
     1  O(17)              0.18747    -113.64266     -40.55053     -37.90711
     2  O(17)              0.07755     -47.01186     -16.77500     -15.68147
     3  C(13)              0.00027       0.30341       0.10827       0.10121
     4  C(13)             -0.00258      -2.89938      -1.03457      -0.96713
     5  C(13)              0.02664      29.95322      10.68805       9.99132
     6  C(13)              0.00089       1.00341       0.35804       0.33470
     7  C(13)              0.00101       1.13638       0.40549       0.37906
     8  H(1)              -0.00617     -27.57695      -9.84014      -9.19868
     9  H(1)              -0.00015      -0.69062      -0.24643      -0.23037
    10  H(1)              -0.01471     -65.76418     -23.46629     -21.93657
    11  H(1)               0.00124       5.55042       1.98053       1.85142
    12  H(1)              -0.00179      -8.00903      -2.85782      -2.67152
    13  H(1)              -0.00031      -1.38264      -0.49336      -0.46120
    14  H(1)              -0.00032      -1.41165      -0.50371      -0.47088
    15  H(1)              -0.00004      -0.16975      -0.06057      -0.05662
    16  H(1)              -0.00031      -1.39744      -0.49864      -0.46614
    17  H(1)              -0.00002      -0.10855      -0.03873      -0.03621
    18  H(1)              -0.00035      -1.54349      -0.55075      -0.51485
 --------------------------------------------------------
       Center         ----  Spin Dipole Couplings  ----
                      3XX-RR        3YY-RR        3ZZ-RR
 --------------------------------------------------------
     1   Atom       -0.329305     -1.703995      2.033300
     2   Atom        0.003939     -0.467990      0.464051
     3   Atom       -0.000313     -0.011607      0.011920
     4   Atom        0.010729      0.005149     -0.015878
     5   Atom        0.072243     -0.032141     -0.040102
     6   Atom        0.001482     -0.000416     -0.001066
     7   Atom        0.002177     -0.000980     -0.001198
     8   Atom        0.021777     -0.009749     -0.012027
     9   Atom        0.005315     -0.000673     -0.004642
    10   Atom        0.071862     -0.027012     -0.044850
    11   Atom        0.002221     -0.004097      0.001877
    12   Atom        0.003083     -0.000430     -0.002652
    13   Atom        0.001289     -0.000560     -0.000729
    14   Atom        0.001252     -0.000600     -0.000652
    15   Atom        0.000969     -0.000459     -0.000509
    16   Atom        0.001784     -0.001177     -0.000607
    17   Atom        0.001225     -0.000647     -0.000578
    18   Atom        0.002160     -0.001025     -0.001135
 --------------------------------------------------------
                        XY            XZ            YZ
 --------------------------------------------------------
     1   Atom       -0.071541     -2.281131      0.065793
     2   Atom        0.042300     -0.704875      0.162489
     3   Atom        0.000855      0.005260     -0.001351
     4   Atom        0.001879     -0.006963      0.003717
     5   Atom       -0.036732      0.020411     -0.004818
     6   Atom        0.001042     -0.000161     -0.000138
     7   Atom       -0.000633     -0.000688      0.000058
     8   Atom        0.025973      0.024136      0.016258
     9   Atom        0.004828      0.001490      0.000702
    10   Atom       -0.079297      0.037609     -0.026188
    11   Atom       -0.005173      0.003452     -0.005742
    12   Atom       -0.007692     -0.002810      0.005452
    13   Atom        0.000914     -0.000325     -0.000219
    14   Atom        0.000728      0.000305      0.000087
    15   Atom        0.000169     -0.000132     -0.000006
    16   Atom       -0.001013     -0.001152      0.000278
    17   Atom       -0.000119     -0.000248     -0.000022
    18   Atom       -0.001178      0.000030     -0.000091
 --------------------------------------------------------


 ---------------------------------------------------------------------------------
              Anisotropic Spin Dipole Couplings in Principal Axis System
 ---------------------------------------------------------------------------------

       Atom             a.u.   MegaHertz   Gauss  10(-4) cm-1        Axes

              Baa    -1.7388   125.817    44.895    41.968  0.6685  0.6312  0.3933
     1 O(17)  Bbb    -1.6838   121.837    43.475    40.641 -0.5320  0.7754 -0.3402
              Bcc     3.4226  -247.654   -88.369   -82.608 -0.5197  0.0182  0.8542
 
              Baa    -0.6220    45.004    16.059    15.012 -0.5802  0.6612 -0.4755
     2 O(17)  Bbb    -0.3614    26.151     9.331     8.723  0.5714  0.7465  0.3409
              Bcc     0.9834   -71.156   -25.390   -23.735 -0.5804  0.0739  0.8109
 
              Baa    -0.0118    -1.585    -0.566    -0.529 -0.1106  0.9906  0.0809
     3 C(13)  Bbb    -0.0021    -0.281    -0.100    -0.094  0.9322  0.1316 -0.3372
              Bcc     0.0139     1.866     0.666     0.623  0.3447 -0.0381  0.9379
 
              Baa    -0.0183    -2.455    -0.876    -0.819  0.2403 -0.1708  0.9556
     4 C(13)  Bbb     0.0057     0.768     0.274     0.256 -0.0917  0.9760  0.1975
              Bcc     0.0126     1.687     0.602     0.563  0.9663  0.1351 -0.2189
 
              Baa    -0.0452    -6.066    -2.165    -2.023 -0.3250 -0.6664  0.6710
     5 C(13)  Bbb    -0.0421    -5.650    -2.016    -1.885  0.0907  0.6843  0.7236
              Bcc     0.0873    11.716     4.180     3.908  0.9413 -0.2960  0.1620
 
              Baa    -0.0011    -0.147    -0.052    -0.049 -0.0498  0.2719  0.9611
     6 C(13)  Bbb    -0.0009    -0.115    -0.041    -0.038 -0.4070  0.8732 -0.2681
              Bcc     0.0020     0.262     0.094     0.088  0.9121  0.4045 -0.0672
 
              Baa    -0.0013    -0.181    -0.065    -0.060  0.2277  0.2431  0.9429
     7 C(13)  Bbb    -0.0011    -0.145    -0.052    -0.048  0.1268  0.9527 -0.2762
              Bcc     0.0024     0.326     0.116     0.109  0.9654 -0.1824 -0.1861
 
              Baa    -0.0272   -14.505    -5.176    -4.839  0.0057 -0.6864  0.7272
     8 H(1)   Bbb    -0.0228   -12.162    -4.340    -4.057  0.6225 -0.5667 -0.5398
              Bcc     0.0500    26.668     9.516     8.895  0.7826  0.4557  0.4241
 
              Baa    -0.0049    -2.593    -0.925    -0.865 -0.1459  0.0023  0.9893
     9 H(1)   Bbb    -0.0034    -1.788    -0.638    -0.597 -0.4759  0.8765 -0.0722
              Bcc     0.0082     4.382     1.563     1.462  0.8673  0.4813  0.1268
 
              Baa    -0.0723   -38.594   -13.771   -12.874  0.4084  0.8715  0.2715
    10 H(1)   Bbb    -0.0556   -29.653   -10.581    -9.891 -0.3513 -0.1244  0.9280
              Bcc     0.1279    68.247    24.352    22.765  0.8425 -0.4744  0.2553
 
              Baa    -0.0084    -4.489    -1.602    -1.497  0.2990  0.8725  0.3865
    11 H(1)   Bbb    -0.0014    -0.734    -0.262    -0.245  0.7295  0.0522 -0.6820
              Bcc     0.0098     5.223     1.864     1.742  0.6152 -0.4859  0.6209
 
              Baa    -0.0082    -4.392    -1.567    -1.465  0.3749  0.7503 -0.5445
    12 H(1)   Bbb    -0.0033    -1.738    -0.620    -0.580  0.6181  0.2354  0.7500
              Bcc     0.0115     6.129     2.187     2.044  0.6909 -0.6177 -0.3755
 
              Baa    -0.0010    -0.517    -0.185    -0.173 -0.2953  0.8700  0.3948
    13 H(1)   Bbb    -0.0008    -0.403    -0.144    -0.134  0.2845 -0.3144  0.9057
              Bcc     0.0017     0.920     0.328     0.307  0.9121  0.3797 -0.1547
 
              Baa    -0.0009    -0.456    -0.163    -0.152 -0.3389  0.9343  0.1104
    14 H(1)   Bbb    -0.0007    -0.371    -0.132    -0.124 -0.0975 -0.1516  0.9836
              Bcc     0.0015     0.827     0.295     0.276  0.9358  0.3226  0.1424
 
              Baa    -0.0005    -0.279    -0.100    -0.093  0.1091 -0.1994  0.9738
    15 H(1)   Bbb    -0.0005    -0.255    -0.091    -0.085 -0.0945  0.9732  0.2098
              Bcc     0.0010     0.533     0.190     0.178  0.9895  0.1150 -0.0873
 
              Baa    -0.0015    -0.801    -0.286    -0.267  0.3379  0.9297  0.1465
    16 H(1)   Bbb    -0.0010    -0.555    -0.198    -0.185  0.2873 -0.2502  0.9246
              Bcc     0.0025     1.356     0.484     0.452  0.8963 -0.2703 -0.3516
 
              Baa    -0.0007    -0.361    -0.129    -0.120  0.1183  0.8624  0.4922
    17 H(1)   Bbb    -0.0006    -0.314    -0.112    -0.105  0.0848 -0.5026  0.8603
              Bcc     0.0013     0.675     0.241     0.225  0.9894 -0.0600 -0.1326
 
              Baa    -0.0014    -0.765    -0.273    -0.255  0.2997  0.9203  0.2515
    18 H(1)   Bbb    -0.0011    -0.595    -0.212    -0.199 -0.0930 -0.2342  0.9677
              Bcc     0.0025     1.360     0.485     0.454  0.9495 -0.3134  0.0154
 

 ---------------------------------------------------------------------------------

 No NMR shielding tensors so no spin-rotation constants.
 Leave Link  601 at Thu Apr 26 12:31:38 2018, MaxMem=  671088640 cpu:      17.0
 (Enter /shared/apps/gaussian/G09_LINUX_LINDA/g09/l701.exe)
 Compute integral first derivatives.
 ... and contract with generalized density number  0.
 Leave Link  701 at Thu Apr 26 12:31:39 2018, MaxMem=  671088640 cpu:      10.5
 (Enter /shared/apps/gaussian/G09_LINUX_LINDA/g09/l702.exe)
 L702 exits ... SP integral derivatives will be done elsewhere.
 Leave Link  702 at Thu Apr 26 12:31:39 2018, MaxMem=  671088640 cpu:       0.3
 (Enter /shared/apps/gaussian/G09_LINUX_LINDA/g09/l703.exe)
 Compute integral first derivatives, UseDBF=F ICtDFT=           0.
 Integral derivatives from FoFDir, PRISM(SPDF).
 Calling FoFJK, ICntrl=      2127 FMM=F ISym2X=0 I1Cent= 0 IOpClX= 1 NMat=1 NMatS=1 NMatT=0.
 FoFCou: FMM=F IPFlag=           0 FMFlag=      100000 FMFlg1=         800
         NFxFlg=           0 DoJE=F BraDBF=F KetDBF=F FulRan=T
         Omega=  0.000000  0.000000  1.000000  0.000000  0.000000 ICntrl=    2127 IOpCl=  1
         NMat0=    1 NMatS0=    1 NMatT0=    0 NMatD0=    1 NMtDS0=    0 NMtDT0=    0
         I1Cent=           0 NGrid=           0.
 Symmetry not used in FoFCou.
 Leave Link  703 at Thu Apr 26 12:31:41 2018, MaxMem=  671088640 cpu:      15.8
 (Enter /shared/apps/gaussian/G09_LINUX_LINDA/g09/l716.exe)
 Dipole        =-1.04875648D+00-3.28046846D-01-3.97461060D-01
 ***** Axes restored to original set *****
 -------------------------------------------------------------------
 Center     Atomic                   Forces (Hartrees/Bohr)
 Number     Number              X              Y              Z
 -------------------------------------------------------------------
      1        8          -0.032500828    0.017433384   -0.104568862
      2        8          -0.039630392    0.001593898    0.004261713
      3        6           0.016262343   -0.017240609    0.016069930
      4        6          -0.018727492    0.016010369   -0.026335719
      5        6          -0.039017932    0.010722369   -0.039099077
      6        6           0.009330254   -0.010564118   -0.002210936
      7        6           0.002140483    0.001267426    0.017289763
      8        1           0.033265625   -0.009135494   -0.006040105
      9        1           0.003063328    0.004904240    0.006061739
[...]
     4  C   -0.040760  -0.042512  -0.042133  -0.035281  -0.041850  -0.041231
     5  C    0.000142  -0.000097  -0.000085  -0.000747   0.000168   0.000237
     6  C    0.395230   0.390225   0.388195   0.003610  -0.002450  -0.001322
     7  C    0.003658  -0.000646  -0.001663   0.395168   0.391505   0.389427
     8  H    0.000001   0.000003  -0.000055  -0.000006  -0.000052   0.000003
     9  H    0.003024   0.000116   0.000143   0.000035  -0.000100  -0.000112
    10  H   -0.000002  -0.000004   0.000019  -0.000159   0.000091  -0.000039
    11  H   -0.000008   0.000005  -0.000001   0.000061  -0.000007   0.000010
    12  H    0.000005   0.000007  -0.000004   0.000391  -0.000078   0.000073
    13  H    0.512132  -0.024231  -0.025010  -0.000091  -0.000025  -0.000065
    14  H   -0.024231   0.538699  -0.034708  -0.000036  -0.000428   0.002518
    15  H   -0.025010  -0.034708   0.546879  -0.000070   0.002738  -0.000355
    16  H   -0.000091  -0.000036  -0.000070   0.509631  -0.026125  -0.024467
    17  H   -0.000025  -0.000428   0.002738  -0.026125   0.539169  -0.033056
    18  H   -0.000065   0.002518  -0.000355  -0.024467  -0.033056   0.533468
 Mulliken atomic charges:
              1
     1  O   -0.299401
     2  O   -0.433484
     3  C   -0.184288
     4  C    0.053303
     5  C   -0.520662
     6  C   -0.509301
     7  C   -0.515665
     8  H    0.457067
     9  H    0.188673
    10  H    0.327190
    11  H    0.201071
    12  H    0.195728
    13  H    0.176837
    14  H    0.171799
    15  H    0.165547
    16  H    0.180874
    17  H    0.169441
    18  H    0.175271
 Sum of Mulliken atomic charges =   0.00000
 Mulliken charges with hydrogens summed into heavy atoms:
              1
     1  O    0.027789
     2  O    0.023583
     3  C    0.004385
     4  C    0.053303
     5  C   -0.123863
     6  C    0.004881
     7  C    0.009922
 Sum of Mulliken charges with hydrogens summed into heavy atoms =   0.00000
          Atomic-Atomic Spin Densities.
              1          2          3          4          5          6
     1  O    0.805102  -0.057242   0.007274   0.000870  -0.069880   0.000003
     2  O   -0.057242   0.038281  -0.002773  -0.000770   0.008896  -0.000002
     3  C    0.007274  -0.002773  -0.712928   0.026809  -0.033532  -0.000232
     4  C    0.000870  -0.000770   0.026809   0.820153  -0.012312  -0.024044
     5  C   -0.069880   0.008896  -0.033532  -0.012312   0.757464   0.000036
     6  C    0.000003  -0.000002  -0.000232  -0.024044   0.000036  -0.089956
     7  C   -0.000029   0.000016   0.000327  -0.027194   0.000306   0.002169
     8  H   -0.000017  -0.000624  -0.001320   0.000827  -0.000293  -0.000024
     9  H   -0.000065   0.000074   0.007423  -0.002050  -0.001684   0.000186
    10  H   -0.073580   0.018378   0.019648  -0.000191   0.063162   0.000020
    11  H    0.002525  -0.000382   0.004602  -0.000115  -0.022945   0.000008
    12  H    0.002073  -0.000168   0.003428  -0.000486  -0.019453   0.000005
    13  H    0.000000   0.000000   0.000918  -0.002156  -0.000003   0.003442
    14  H    0.000000   0.000000  -0.000191  -0.012537   0.000025   0.007637
    15  H   -0.000002   0.000008   0.000299  -0.012839   0.000015   0.006749
    16  H   -0.000007   0.000002   0.000808  -0.002147  -0.000440  -0.000078
    17  H   -0.000014   0.000007   0.000126  -0.011045   0.000095   0.000404
    18  H    0.000002   0.000000  -0.000099  -0.012693   0.000144   0.000564
              7          8          9         10         11         12
     1  O   -0.000029  -0.000017  -0.000065  -0.073580   0.002525   0.002073
     2  O    0.000016  -0.000624   0.000074   0.018378  -0.000382  -0.000168
     3  C    0.000327  -0.001320   0.007423   0.019648   0.004602   0.003428
     4  C   -0.027194   0.000827  -0.002050  -0.000191  -0.000115  -0.000486
     5  C    0.000306  -0.000293  -0.001684   0.063162  -0.022945  -0.019453
     6  C    0.002169  -0.000024   0.000186   0.000020   0.000008   0.000005
     7  C   -0.084707  -0.000040   0.000044  -0.000090  -0.000020   0.000332
     8  H   -0.000040  -0.002737  -0.000023   0.001317  -0.000004  -0.000016
     9  H    0.000044  -0.000023   0.040872  -0.000111  -0.000232  -0.000045
    10  H   -0.000090   0.001317  -0.000111  -0.265286   0.008386   0.008944
    11  H   -0.000020  -0.000004  -0.000232   0.008386  -0.034951   0.002671
    12  H    0.000332  -0.000016  -0.000045   0.008944   0.002671  -0.038416
    13  H   -0.000060   0.000000  -0.000070   0.000000   0.000001   0.000000
    14  H    0.000441   0.000001  -0.000035   0.000001   0.000001   0.000001
    15  H    0.000582  -0.000025   0.000045  -0.000003  -0.000001  -0.000001
    16  H    0.003469  -0.000002   0.000005   0.000052   0.000005   0.000058
    17  H    0.007265  -0.000031   0.000003  -0.000006  -0.000002  -0.000030
    18  H    0.007149   0.000002  -0.000011   0.000003   0.000005   0.000037
             13         14         15         16         17         18
     1  O    0.000000   0.000000  -0.000002  -0.000007  -0.000014   0.000002
     2  O    0.000000   0.000000   0.000008   0.000002   0.000007   0.000000
     3  C    0.000918  -0.000191   0.000299   0.000808   0.000126  -0.000099
     4  C   -0.002156  -0.012537  -0.012839  -0.002147  -0.011045  -0.012693
     5  C   -0.000003   0.000025   0.000015  -0.000440   0.000095   0.000144
     6  C    0.003442   0.007637   0.006749  -0.000078   0.000404   0.000564
     7  C   -0.000060   0.000441   0.000582   0.003469   0.007265   0.007149
     8  H    0.000000   0.000001  -0.000025  -0.000002  -0.000031   0.000002
     9  H   -0.000070  -0.000035   0.000045   0.000005   0.000003  -0.000011
    10  H    0.000000   0.000001  -0.000003   0.000052  -0.000006   0.000003
    11  H    0.000001   0.000001  -0.000001   0.000005  -0.000002   0.000005
    12  H    0.000000   0.000001  -0.000001   0.000058  -0.000030   0.000037
    13  H    0.003255  -0.000645  -0.000731   0.000000  -0.000003  -0.000002
    14  H   -0.000645   0.036584  -0.007916  -0.000006  -0.000653   0.001576
    15  H   -0.000731  -0.007916   0.038139   0.000006   0.001589  -0.000590
    16  H    0.000000  -0.000006   0.000006   0.003572  -0.000341  -0.001028
    17  H   -0.000003  -0.000653   0.001589  -0.000341   0.030422  -0.006933
    18  H   -0.000002   0.001576  -0.000590  -0.001028  -0.006933   0.037262
 Mulliken atomic spin densities:
              1
     1  O    0.617012
     2  O    0.003699
     3  C   -0.679412
     4  C    0.728081
     5  C    0.669602
     6  C   -0.093112
     7  C   -0.090040
     8  H   -0.003008
     9  H    0.044327
    10  H   -0.219358
    11  H   -0.040447
    12  H   -0.041067
    13  H    0.003947
    14  H    0.024283
    15  H    0.025325
    16  H    0.003928
    17  H    0.020853
    18  H    0.025386
 Sum of Mulliken atomic spin densities =   1.00000
 Electronic spatial extent (au):  <R**2>=           1104.6563
 Charge=              0.0000 electrons
 Dipole moment (field-independent basis, Debye):
    X=             -3.0476    Y=             -0.1266    Z=              0.3477  Tot=              3.0700
 Quadrupole moment (field-independent basis, Debye-Ang):
   XX=            -52.9978   YY=            -42.4813   ZZ=            -42.7107
   XY=             -2.2580   XZ=             -1.3776   YZ=              1.6567
 Traceless Quadrupole moment (field-independent basis, Debye-Ang):
   XX=             -6.9346   YY=              3.5820   ZZ=              3.3525
   XY=             -2.2580   XZ=             -1.3776   YZ=              1.6567
 Octapole moment (field-independent basis, Debye-Ang**2):
  XXX=            -12.3207  YYY=              5.0470  ZZZ=              2.1598  XYY=              6.6109
  XXY=             -3.8826  XXZ=             -0.2941  XZZ=              8.8053  YZZ=              5.1031
  YYZ=              4.4805  XYZ=              4.7130
 Hexadecapole moment (field-independent basis, Debye-Ang**3):
 XXXX=           -964.1514 YYYY=           -278.9790 ZZZZ=           -213.5300 XXXY=             -0.5591
 XXXZ=             -1.7739 YYYX=              7.1751 YYYZ=              4.1479 ZZZX=              4.3402
 ZZZY=              4.5600 XXYY=           -204.8683 XXZZ=           -187.2137 YYZZ=            -79.7127
 XXYZ=              4.7404 YYXZ=              4.8151 ZZXY=              1.5507
 N-N= 3.054097911468D+02 E-N=-2.121522285513D+03  KE= 5.157378712213D+02
                          Isotropic Fermi Contact Couplings
        Atom                 a.u.       MegaHertz       Gauss      10(-4) cm-1
     1  O(17)              0.11652     -70.63299     -25.20361     -23.56063
     2  O(17)              0.02486     -15.07214      -5.37812      -5.02753
     3  C(13)             -0.12253    -137.75129     -49.15308     -45.94888
     4  C(13)              0.12964     145.73484      52.00181      48.61191
     5  C(13)              0.17128     192.55319      68.70776      64.22883
     6  C(13)             -0.03096     -34.80941     -12.42086     -11.61117
     7  C(13)             -0.02969     -33.38089     -11.91113     -11.13467
     8  H(1)              -0.00150      -6.68326      -2.38475      -2.22929
     9  H(1)               0.01369      61.18232      21.83137      20.40822
    10  H(1)              -0.08769    -391.95098    -139.85785    -130.74078
    11  H(1)              -0.01376     -61.52498     -21.95364     -20.52252
    12  H(1)              -0.01362     -60.86842     -21.71937     -20.30352
    13  H(1)               0.00134       6.00807       2.14383       2.00407
    14  H(1)               0.01084      48.45006      17.28819      16.16120
    15  H(1)               0.01123      50.21869      17.91928      16.75115
    16  H(1)               0.00138       6.15292       2.19551       2.05239
    17  H(1)               0.00934      41.76252      14.90190      13.93048
    18  H(1)               0.01135      50.71587      18.09668      16.91699
 --------------------------------------------------------
       Center         ----  Spin Dipole Couplings  ----
                      3XX-RR        3YY-RR        3ZZ-RR
 --------------------------------------------------------
     1   Atom        0.526336     -0.741427      0.215091
     2   Atom        0.123172     -0.137991      0.014819
     3   Atom        0.016460     -0.040628      0.024168
     4   Atom       -0.008790      0.056046     -0.047257
     5   Atom        0.192738     -0.126292     -0.066446
     6   Atom       -0.003347     -0.000559      0.003906
     7   Atom        0.004508      0.001284     -0.005792
     8   Atom        0.003078      0.007923     -0.011001
     9   Atom        0.023468     -0.009845     -0.013623
    10   Atom        0.052619     -0.041264     -0.011355
    11   Atom       -0.005522     -0.028984      0.034506
    12   Atom       -0.016132      0.018223     -0.002091
    13   Atom       -0.001861      0.002796     -0.000934
    14   Atom        0.003637     -0.000743     -0.002894
    15   Atom        0.001724      0.003949     -0.005673
    16   Atom       -0.000997      0.000011      0.000986
    17   Atom       -0.000734     -0.004602      0.005337
    18   Atom       -0.001705      0.000346      0.001359
 --------------------------------------------------------
                        XY            XZ            YZ
 --------------------------------------------------------
     1   Atom        0.912551      1.645016      0.794428
     2   Atom        0.215280      0.152462      0.238725
     3   Atom       -0.258851     -0.225540     -0.224760
     4   Atom        0.308468      0.275639      0.290324
     5   Atom        0.284069      0.321642      0.193722
     6   Atom        0.005736      0.001721     -0.002496
     7   Atom       -0.002780      0.003244      0.003427
     8   Atom       -0.013313     -0.006659      0.009993
     9   Atom       -0.016630     -0.007973      0.019133
    10   Atom        0.125856      0.143066      0.102864
    11   Atom        0.007656     -0.019932      0.021038
    12   Atom        0.023534      0.001678     -0.026503
    13   Atom       -0.001863      0.003998     -0.003759
    14   Atom       -0.006493      0.002021     -0.001046
    15   Atom       -0.005921     -0.000526     -0.000596
    16   Atom        0.001633     -0.000980     -0.004219
    17   Atom        0.000381     -0.003018     -0.004081
    18   Atom        0.002008     -0.004095     -0.004805
 --------------------------------------------------------


 ---------------------------------------------------------------------------------
              Anisotropic Spin Dipole Couplings in Principal Axis System
 ---------------------------------------------------------------------------------

       Atom             a.u.   MegaHertz   Gauss  10(-4) cm-1        Axes

              Baa    -1.2883    93.224    33.265    31.096  0.7158 -0.2438 -0.6544
     1 O(17)  Bbb    -1.1893    86.056    30.707    28.705 -0.0770  0.9038 -0.4210
              Bcc     2.4776  -179.280   -63.971   -59.801  0.6941  0.3518  0.6281
 
              Baa    -0.3332    24.110     8.603     8.042 -0.2405  0.8464 -0.4752
     2 O(17)  Bbb    -0.0794     5.747     2.051     1.917  0.7075 -0.1823 -0.6828
              Bcc     0.4126   -29.857   -10.654    -9.959  0.6645  0.5004  0.5550
 
              Baa    -0.4751   -63.754   -22.749   -21.266  0.5726  0.6191  0.5374
     3 C(13)  Bbb     0.2188    29.366    10.478     9.795  0.0175 -0.6646  0.7470
              Bcc     0.2563    34.389    12.271    11.471  0.8196 -0.4183 -0.3914
 
              Baa    -0.3044   -40.852   -14.577   -13.627 -0.6505 -0.0535  0.7576
     4 C(13)  Bbb    -0.2821   -37.855   -13.508   -12.627 -0.5013  0.7796 -0.3753
              Bcc     0.5865    78.708    28.085    26.254  0.5705  0.6240  0.5340
 
              Baa    -0.2944   -39.503   -14.096   -13.177 -0.2869  0.8908 -0.3523
     5 C(13)  Bbb    -0.2834   -38.034   -13.571   -12.687 -0.6031  0.1178  0.7889
              Bcc     0.5778    77.537    27.667    25.864  0.7443  0.4388  0.5035
 
              Baa    -0.0085    -1.145    -0.409    -0.382  0.7553 -0.6145 -0.2278
     6 C(13)  Bbb     0.0033     0.448     0.160     0.149  0.6186  0.5536  0.5575
              Bcc     0.0052     0.697     0.249     0.233 -0.2165 -0.5620  0.7983
 
              Baa    -0.0085    -1.135    -0.405    -0.379 -0.3014 -0.3917  0.8693
     7 C(13)  Bbb     0.0022     0.297     0.106     0.099  0.3159  0.8192  0.4787
              Bcc     0.0062     0.838     0.299     0.280  0.8996 -0.4189  0.1232
 
              Baa    -0.0154    -8.201    -2.926    -2.736  0.0815 -0.3533  0.9320
     8 H(1)   Bbb    -0.0078    -4.180    -1.492    -1.394  0.8001  0.5807  0.1502
              Bcc     0.0232    12.382     4.418     4.130 -0.5943  0.7334  0.3299
 
              Baa    -0.0315   -16.833    -6.006    -5.615  0.1110  0.7037 -0.7018
     9 H(1)   Bbb    -0.0036    -1.934    -0.690    -0.645  0.5296  0.5556  0.6409
              Bcc     0.0352    18.767     6.697     6.260  0.8409 -0.4428 -0.3110
 
              Baa    -0.1305   -69.649   -24.853   -23.233 -0.1749  0.8394 -0.5145
    10 H(1)   Bbb    -0.1255   -66.983   -23.901   -22.343  0.7086 -0.2555 -0.6577
              Bcc     0.2561   136.632    48.754    45.576  0.6836  0.4797  0.5502
 
              Baa    -0.0407   -21.725    -7.752    -7.247 -0.3802  0.8597 -0.3412
    11 H(1)   Bbb    -0.0058    -3.108    -1.109    -1.037  0.8680  0.4591  0.1895
              Bcc     0.0465    24.833     8.861     8.283 -0.3195  0.2241  0.9207
 
              Baa    -0.0353   -18.842    -6.723    -6.285  0.7020 -0.5390 -0.4654
    12 H(1)   Bbb    -0.0073    -3.887    -1.387    -1.297  0.6384  0.1868  0.7467
              Bcc     0.0426    22.729     8.110     7.581  0.3155  0.8213 -0.4752
 
              Baa    -0.0056    -2.995    -1.069    -0.999 -0.6779  0.1695  0.7153
    13 H(1)   Bbb    -0.0012    -0.638    -0.228    -0.213  0.6082  0.6759  0.4162
              Bcc     0.0068     3.634     1.297     1.212 -0.4129  0.7173 -0.5613
 
              Baa    -0.0055    -2.911    -1.039    -0.971  0.5964  0.7889 -0.1485
    14 H(1)   Bbb    -0.0033    -1.750    -0.625    -0.584 -0.0656  0.2322  0.9704
              Bcc     0.0087     4.661     1.663     1.555  0.8000 -0.5690  0.1902
 
              Baa    -0.0059    -3.148    -1.123    -1.050  0.2089  0.1837  0.9605
    15 H(1)   Bbb    -0.0030    -1.580    -0.564    -0.527  0.7411  0.6111 -0.2780
              Bcc     0.0089     4.728     1.687     1.577 -0.6380  0.7700 -0.0085
 
              Baa    -0.0039    -2.069    -0.738    -0.690 -0.2212  0.7583  0.6132
    16 H(1)   Bbb    -0.0014    -0.746    -0.266    -0.249  0.9342 -0.0156  0.3564
              Bcc     0.0053     2.815     1.004     0.939 -0.2798 -0.6517  0.7050
 
              Baa    -0.0062    -3.284    -1.172    -1.095  0.1376  0.9214  0.3634
    17 H(1)   Bbb    -0.0017    -0.894    -0.319    -0.298  0.9344 -0.2424  0.2610
              Bcc     0.0078     4.178     1.491     1.394 -0.3286 -0.3036  0.8943
 
              Baa    -0.0050    -2.674    -0.954    -0.892  0.6169  0.3847  0.6867
    18 H(1)   Bbb    -0.0027    -1.460    -0.521    -0.487 -0.6622  0.7252  0.1887
              Bcc     0.0077     4.134     1.475     1.379 -0.4254 -0.5711  0.7021
 

 ---------------------------------------------------------------------------------

 No NMR shielding tensors so no spin-rotation constants.
 Leave Link  601 at Thu Apr 26 13:15:20 2018, MaxMem=  671088640 cpu:      15.4
 (Enter /shared/apps/gaussian/G09_LINUX_LINDA/g09/l9999.exe)
 1\1\GINC-COMPUTE-3-045\FOpt\UHF\6-31G(d)\C5H11O2(2)\ROOT\26-Apr-2018\0
 \\#p hf/6-31g* Opt=(ModRedun,Loose) Int(Grid=SG1)\\Gaussian input prep
 ared by ASE\\0,2\O,-2.4967826965,1.0322099368,-2.1032186176\O,-1.79324
 42358,0.2704035377,-2.9845287717\C,0.5030953844,1.1741327338,-1.043685
 9107\C,0.783567677,0.1237845986,-0.229025317\C,-0.5719244752,2.1500681
 81,-0.890701132\C,1.9386248972,-0.7979089569,-0.532323044\C,0.02150364
 08,-0.2077810309,1.0296878971\H,-1.5845471063,-0.5156799933,-2.4929974
 674\H,1.1111229814,1.2909096215,-1.9251340655\H,-1.6172797787,1.712859
 2091,-1.549946215\H,-0.3922273554,3.0935041152,-1.3863777095\H,-0.9740
 42662,2.2870836227,0.1012531178\H,2.4550673944,-0.5146468242,-1.441780
 8218\H,2.6609188996,-0.7921071634,0.2810953363\H,1.5994196666,-1.82581
 95867,-0.6422335169\H,-0.8485082094,0.4161935239,1.1796226627\H,-0.314
 1444933,-1.2419186492,1.007327798\H,0.6638291846,-0.1064132709,1.90178
 77897\\Version=EM64L-G09RevB.01\State=2-A\HF=-345.2582949\S2=0.994131\
 S2-1=0.\S2A=0.775283\RMSD=4.123e-09\RMSF=2.042e-03\Dipole=0.810726,-0.
 4405995,0.7793657\Quadrupole=-2.5640711,4.0549809,-1.4909098,0.839863,
 -3.3525062,0.8731795\PG=C01 [X(C5H11O2)]\\@


 I WOULD TAKE COUNSEL OF MYSELF.
 I WOULD STOP AND LOOK WITHIN
 AND LOOKING WITHIN, LOOK BACK, ALSO
 THAT I MAY LOOK AHEAD WITH CLEARER UNDERSTANDING
 OF THE WAY I HAVE BEEN MOVING, AND IN WHAT DIRECTION.
 I NEED TO KNOW IF I AM GOING FORWARD OR RETREATING,
 WHETHER I HAVE BEEN WASTING, OR ENJOYING
 THE PRECIOUS MOMENTS OF LIFE.  THERE HAVE BEEN FRICTIONS,
 ANNOYANCES AND SOMETIMES WRATH,
 BUT WERE THEY BECAUSE I WAS RIGHT AND OTHERS WRONG.....
 HAVE I HAD MY THOUGHTS TOO SHARPLY FOCUSED
 ON THAT WHICH PLEASED ME, SERVED MY SELF-ESTEEM,
 UNDERGIRDED MY SECURITY,
 OF WHICH I DID NOT INQUIRE WHETHER IT SERVED OR HAMPERED OTHERS.....
 HAVE I BEEN TRYING TO STOP THE CLOCK
 TO HOLD THE WORLD
 IN PERPETUATION OF WHAT WAS AN IS ALREADY SLIPPING AWAY.....
 HAVE I BEEN CRITICAL OF OTHERS FOR WHAT REALLY NEEDED CHANGING IN ME...
 LET ME INDEED TAKE COUNSEL OF MYSELF
 AND SET MY DIRECTIONS STRAIGHT.

                          R.T. WESTON AS ADAPTED BY D. OSBORN 1967
 Job cpu time:  0 days  7 hours 21 minutes 50.8 seconds.
 File lengths (MBytes):  RWF=     47 Int=      0 D2E=      0 Chk=      3 Scr=      1
 Normal termination of Gaussian 09 at Thu Apr 26 13:15:20 2018.
