 Entering Gaussian System, Link 0=g09
 Initial command:
 /shared/apps/gaussian/G09_LINUX_LINDA/g09/l1.exe /home/harms.n/Code/AutoTST/ipython_notebooks/Gau-16224.inp -scrdir=/home/harms.n/Code/AutoTST/ipython_notebooks/
 Entering Link 1 = /shared/apps/gaussian/G09_LINUX_LINDA/g09/l1.exe PID=     16225.
  
 Copyright (c) 1988,1990,1992,1993,1995,1998,2003,2009,2010,
            Gaussian, Inc.  All Rights Reserved.
  
 This is part of the Gaussian(R) 09 program.  It is based on
 the Gaussian(R) 03 system (copyright 2003, Gaussian, Inc.),
 the Gaussian(R) 98 system (copyright 1998, Gaussian, Inc.),
 the Gaussian(R) 94 system (copyright 1995, Gaussian, Inc.),
 the Gaussian 92(TM) system (copyright 1992, Gaussian, Inc.),
 the Gaussian 90(TM) system (copyright 1990, Gaussian, Inc.),
 the Gaussian 88(TM) system (copyright 1988, Gaussian, Inc.),
 the Gaussian 86(TM) system (copyright 1986, Carnegie Mellon
 University), and the Gaussian 82(TM) system (copyright 1983,
 Carnegie Mellon University). Gaussian is a federally registered
 trademark of Gaussian, Inc.
  
 This software contains proprietary and confidential information,
 including trade secrets, belonging to Gaussian, Inc.
  
 This software is provided under written license and may be
 used, copied, transmitted, or stored only in accord with that
 written license.
  
 The following legend is applicable only to US Government
 contracts under FAR:
  
                    RESTRICTED RIGHTS LEGEND
  
 Use, reproduction and disclosure by the US Government is
 subject to restrictions as set forth in subparagraphs (a)
 and (c) of the Commercial Computer Software - Restricted
 Rights clause in FAR 52.227-19.
  
 Gaussian, Inc.
 340 Quinnipiac St., Bldg. 40, Wallingford CT 06492
  
  
 ---------------------------------------------------------------
 Warning -- This program may not be used in any manner that
 competes with the business of Gaussian, Inc. or will provide
 assistance to any competitor of Gaussian, Inc.  The licensee
 of this program is prohibited from giving any competitor of
 Gaussian, Inc. access to this program.  By using this program,
 the user acknowledges that Gaussian, Inc. is engaged in the
 business of creating and licensing software in the field of
 computational chemistry and represents and warrants to the
 licensee that it is not a competitor of Gaussian, Inc. and that
 it will not use this program in any manner prohibited above.
 ---------------------------------------------------------------
  

 Cite this work as:
 Gaussian 09, Revision B.01,
 M. J. Frisch, G. W. Trucks, H. B. Schlegel, G. E. Scuseria, 
 M. A. Robb, J. R. Cheeseman, G. Scalmani, V. Barone, B. Mennucci, 
 G. A. Petersson, H. Nakatsuji, M. Caricato, X. Li, H. P. Hratchian, 
 A. F. Izmaylov, J. Bloino, G. Zheng, J. L. Sonnenberg, M. Hada, 
 M. Ehara, K. Toyota, R. Fukuda, J. Hasegawa, M. Ishida, T. Nakajima, 
 Y. Honda, O. Kitao, H. Nakai, T. Vreven, J. A. Montgomery, Jr., 
 J. E. Peralta, F. Ogliaro, M. Bearpark, J. J. Heyd, E. Brothers, 
 K. N. Kudin, V. N. Staroverov, T. Keith, R. Kobayashi, J. Normand, 
 K. Raghavachari, A. Rendell, J. C. Burant, S. S. Iyengar, J. Tomasi, 
 M. Cossi, N. Rega, J. M. Millam, M. Klene, J. E. Knox, J. B. Cross, 
 V. Bakken, C. Adamo, J. Jaramillo, R. Gomperts, R. E. Stratmann, 
 O. Yazyev, A. J. Austin, R. Cammi, C. Pomelli, J. W. Ochterski, 
 R. L. Martin, K. Morokuma, V. G. Zakrzewski, G. A. Voth, 
 P. Salvador, J. J. Dannenberg, S. Dapprich, A. D. Daniels, 
 O. Farkas, J. B. Foresman, J. V. Ortiz, J. Cioslowski, 
 and D. J. Fox, Gaussian, Inc., Wallingford CT, 2010.
 
 ******************************************
 Gaussian 09:  EM64L-G09RevB.01 12-Aug-2010
                30-Apr-2018 
 ******************************************
 %nprocshared=20
 Will use up to   20 processors via shared memory.
 %mem=5GB
 ---------------------------------------------------
 #p hf/6-31g* opt=(verytight,gdiis) freq IOP(2/16=3)
 ---------------------------------------------------

 Warning!  Use of Opt=GDIIS is deprecated since it is seldom a good choice.

 1/7=1,18=20,19=11,38=1/1,3;
 2/9=110,12=2,16=3,17=6,18=5,40=1/2;
 3/5=1,6=6,7=1,11=9,16=1,25=1,30=1,71=1/1,2,3;
 4//1;
 5/5=2,38=5/2;
 6/7=2,8=2,9=2,10=2,28=1/1;
 7//1,2,3,16;
 1/7=1,18=20,19=11/3(2);
 2/9=110,16=3/2;
 99//99;
 2/9=110,16=3/2;
 3/5=1,6=6,7=1,11=9,16=1,25=1,30=1,71=1/1,2,3;
 4/5=5,16=3/1;
 5/5=2,38=5/2;
 7//1,2,3,16;
 1/7=1,18=20,19=11/3(-5);
 2/9=110,16=3/2;
 6/7=2,8=2,9=2,10=2,19=2,28=1/1;
 99/9=1/99;
 Leave Link    1 at Mon Apr 30 11:52:48 2018, MaxMem=  671088640 cpu:       1.0
 (Enter /shared/apps/gaussian/G09_LINUX_LINDA/g09/l101.exe)
 ------------------------------
 Gaussian input prepared by ASE
 ------------------------------
 Symbolic Z-matrix:
 Charge =  0 Multiplicity = 1
 O                     0.5279   -0.3608    0.1429 
 O                    -0.544     0.3987    0.1194 
 H                     1.3378    0.1343   -0.1343 
 H                    -1.3217   -0.1722   -0.128 
 
 NAtoms=      4 NQM=      4 NQMF=      0 NMic=      0 NMicF=      0 NTot=      4.
                    Isotopes and Nuclear Properties:
 (Nuclear quadrupole moments (NQMom) in fm**2, nuclear magnetic moments (NMagM)
  in nuclear magnetons)

  Atom         1           2           3           4
 IAtWgt=          16          16           1           1
 AtmWgt=  15.9949146  15.9949146   1.0078250   1.0078250
 NucSpn=           0           0           1           1
 AtZEff=   0.0000000   0.0000000   0.0000000   0.0000000
 NQMom=    0.0000000   0.0000000   0.0000000   0.0000000
 NMagM=    0.0000000   0.0000000   2.7928460   2.7928460
 Leave Link  101 at Mon Apr 30 11:52:48 2018, MaxMem=  671088640 cpu:       1.1
 (Enter /shared/apps/gaussian/G09_LINUX_LINDA/g09/l103.exe)

 GradGradGradGradGradGradGradGradGradGradGradGradGradGradGradGradGradGrad
 Berny optimization.
 Initialization pass.
                           ----------------------------
                           !    Initial Parameters    !
                           ! (Angstroms and Degrees)  !
 --------------------------                            --------------------------
 ! Name  Definition              Value          Derivative Info.                !
 --------------------------------------------------------------------------------
 ! R1    R(1,2)                  1.3139         estimate D2E/DX2                !
 ! R2    R(1,3)                  0.9889         estimate D2E/DX2                !
 ! R3    R(2,4)                  0.996          estimate D2E/DX2                !
 ! A1    A(2,1,3)              111.9457         estimate D2E/DX2                !
 ! A2    A(1,2,4)              108.0667         estimate D2E/DX2                !
 ! D1    D(3,1,2,4)            147.1701         estimate D2E/DX2                !
 --------------------------------------------------------------------------------
 Trust Radius=3.00D-01 FncErr=1.00D-07 GrdErr=1.00D-07
 Number of steps in this run=     20 maximum allowed number of steps=    100.
 GradGradGradGradGradGradGradGradGradGradGradGradGradGradGradGradGradGrad

 Leave Link  103 at Mon Apr 30 11:52:48 2018, MaxMem=  671088640 cpu:       0.1
 (Enter /shared/apps/gaussian/G09_LINUX_LINDA/g09/l202.exe)
                          Input orientation:                          
 ---------------------------------------------------------------------
 Center     Atomic      Atomic             Coordinates (Angstroms)
 Number     Number       Type             X           Y           Z
 ---------------------------------------------------------------------
      1          8           0        0.527900   -0.360800    0.142900
      2          8           0       -0.544000    0.398700    0.119400
      3          1           0        1.337800    0.134300   -0.134300
      4          1           0       -1.321700   -0.172200   -0.128000
 ---------------------------------------------------------------------
                    Distance matrix (angstroms):
                    1          2          3          4
     1  O    0.000000
     2  O    1.313911   0.000000
     3  H    0.988889   1.917144   0.000000
     4  H    1.878823   0.995967   2.677111   0.000000
 Stoichiometry    H2O2
 Framework group  C1[X(H2O2)]
 Deg. of freedom     6
 Full point group                 C1      NOp   1
 Largest Abelian subgroup         C1      NOp   1
 Largest concise Abelian subgroup C1      NOp   1
                         Standard orientation:                         
 ---------------------------------------------------------------------
 Center     Atomic      Atomic             Coordinates (Angstroms)
 Number     Number       Type             X           Y           Z
 ---------------------------------------------------------------------
      1          8           0        0.637146    0.145198   -0.031504
      2          8           0       -0.643023   -0.150623   -0.026954
      3          1           0        1.195418   -0.625083    0.238497
      4          1           0       -1.148406    0.668486    0.229169
 ---------------------------------------------------------------------
 Rotational constants (GHZ):    332.5169396     31.2672330     29.0109364
 Leave Link  202 at Mon Apr 30 11:52:48 2018, MaxMem=  671088640 cpu:       0.7
 (Enter /shared/apps/gaussian/G09_LINUX_LINDA/g09/l301.exe)
 Standard basis: 6-31G(d) (6D, 7F)
 Ernie: Thresh=  0.10000D-02 Tol=  0.10000D-05 Strict=F.
 There are    34 symmetry adapted basis functions of A   symmetry.
 Integral buffers will be    131072 words long.
 Raffenetti 1 integral format.
 Two-electron integral symmetry is turned on.
    34 basis functions,    64 primitive gaussians,    34 cartesian basis functions
     9 alpha electrons        9 beta electrons
       nuclear repulsion energy        38.9666048609 Hartrees.
 IExCor=    0 DFT=F Ex=HF Corr=None ExCW=0 ScaHFX=  1.000000
 ScaDFX=  1.000000  1.000000  1.000000  1.000000 ScalE2=  1.000000  1.000000
 IRadAn=      0 IRanWt=     -1 IRanGd=            0 ICorTp=0
 NAtoms=    4 NActive=    4 NUniq=    4 SFac= 1.00D+00 NAtFMM=   50 NAOKFM=F Big=F
 Leave Link  301 at Mon Apr 30 11:52:48 2018, MaxMem=  671088640 cpu:       1.0
 (Enter /shared/apps/gaussian/G09_LINUX_LINDA/g09/l302.exe)
 NPDir=0 NMtPBC=     1 NCelOv=     1 NCel=       1 NClECP=     1 NCelD=      1
         NCelK=      1 NCelE2=     1 NClLst=     1 CellRange=     0.0.
 One-electron integrals computed using PRISM.
 NBasis=    34 RedAO= T  NBF=    34
 NBsUse=    34 1.00D-06 NBFU=    34
 Leave Link  302 at Mon Apr 30 11:52:49 2018, MaxMem=  671088640 cpu:       6.8
 (Enter /shared/apps/gaussian/G09_LINUX_LINDA/g09/l303.exe)
 DipDrv:  MaxL=1.
 Leave Link  303 at Mon Apr 30 11:52:49 2018, MaxMem=  671088640 cpu:       1.6
 (Enter /shared/apps/gaussian/G09_LINUX_LINDA/g09/l401.exe)
 Harris functional with IExCor=  205 diagonalized for initial guess.
 ExpMin= 1.61D-01 ExpMax= 5.48D+03 ExpMxC= 8.25D+02 IAcc=1 IRadAn=         1 AccDes= 0.00D+00
 HarFok:  IExCor=  205 AccDes= 0.00D+00 IRadAn=         1 IDoV= 1
 ScaDFX=  1.000000  1.000000  1.000000  1.000000
 FoFCou: FMM=F IPFlag=           0 FMFlag=      100000 FMFlg1=           0
         NFxFlg=           0 DoJE=T BraDBF=F KetDBF=T FulRan=T
         Omega=  0.000000  0.000000  1.000000  0.000000  0.000000 ICntrl=     500 IOpCl=  0
         NMat0=    1 NMatS0=    1 NMatT0=    0 NMatD0=    1 NMtDS0=    0 NMtDT0=    0
         I1Cent=           4 NGrid=           0.
 Petite list used in FoFCou.
 Harris En= -150.842295811243    
 Initial guess orbital symmetries:
       Occupied  (A) (A) (A) (A) (A) (A) (A) (A) (A)
       Virtual   (A) (A) (A) (A) (A) (A) (A) (A) (A) (A) (A) (A)
                 (A) (A) (A) (A) (A) (A) (A) (A) (A) (A) (A) (A)
                 (A)
 The electronic state of the initial guess is 1-A.
 Leave Link  401 at Mon Apr 30 11:52:51 2018, MaxMem=  671088640 cpu:      19.6
 (Enter /shared/apps/gaussian/G09_LINUX_LINDA/g09/l502.exe)
 Closed shell SCF:
 Requested convergence on RMS density matrix=1.00D-08 within 128 cycles.
 Requested convergence on MAX density matrix=1.00D-06.
 Requested convergence on             energy=1.00D-06.
 No special actions if energy rises.
 Using DIIS extrapolation, IDIIS=  1040.
 Integral symmetry usage will be decided dynamically.
 Keep R1 ints in memory in canonical form, NReq=1019876.
 IEnd=       22552 IEndB=       22552 NGot=   671088640 MDV=   670906581
 LenX=   670906581 LenY=   670904984
 Symmetry not used in FoFDir.
 MinBra= 0 MaxBra= 2 Meth= 1.
 IRaf=       0 NMat=   1 IRICut=       1 DoRegI=T DoRafI=F ISym2E= 0 JSym2E=0.

 Cycle   1  Pass 1  IDiag  1:
 E= -150.701306913081    
 DIIS: error= 4.97D-02 at cycle   1 NSaved=   1.
 NSaved= 1 IEnMin= 1 EnMin= -150.701306913081     IErMin= 1 ErrMin= 4.97D-02
 ErrMax= 4.97D-02 EMaxC= 1.00D-01 BMatC= 1.13D-01 BMatP= 1.13D-01
 IDIUse=3 WtCom= 5.03D-01 WtEn= 4.97D-01
 Coeff-Com:  0.100D+01
 Coeff-En:   0.100D+01
 Coeff:      0.100D+01
 Gap=     0.674 Goal=   None    Shift=    0.000
 GapD=    0.674 DampG=2.000 DampE=0.500 DampFc=1.0000 IDamp=-1.
 RMSDP=6.18D-03 MaxDP=6.03D-02              OVMax= 6.29D-02

 Cycle   2  Pass 1  IDiag  1:
 E= -150.742055830270     Delta-E=       -0.040748917189 Rises=F Damp=F
 DIIS: error= 1.37D-02 at cycle   2 NSaved=   2.
 NSaved= 2 IEnMin= 2 EnMin= -150.742055830270     IErMin= 2 ErrMin= 1.37D-02
 ErrMax= 1.37D-02 EMaxC= 1.00D-01 BMatC= 1.06D-02 BMatP= 1.13D-01
 IDIUse=3 WtCom= 8.63D-01 WtEn= 1.37D-01
 Coeff-Com:  0.141D+00 0.859D+00
 Coeff-En:   0.000D+00 0.100D+01
 Coeff:      0.122D+00 0.878D+00
 Gap=     0.652 Goal=   None    Shift=    0.000
 RMSDP=2.52D-03 MaxDP=2.48D-02 DE=-4.07D-02 OVMax= 2.04D-02

 Cycle   3  Pass 1  IDiag  1:
 E= -150.748173366142     Delta-E=       -0.006117535872 Rises=F Damp=F
 DIIS: error= 4.31D-03 at cycle   3 NSaved=   3.
 NSaved= 3 IEnMin= 3 EnMin= -150.748173366142     IErMin= 3 ErrMin= 4.31D-03
 ErrMax= 4.31D-03 EMaxC= 1.00D-01 BMatC= 9.48D-04 BMatP= 1.06D-02
 IDIUse=3 WtCom= 9.57D-01 WtEn= 4.31D-02
 Coeff-Com: -0.177D-01 0.206D+00 0.812D+00
 Coeff-En:   0.000D+00 0.000D+00 0.100D+01
 Coeff:     -0.169D-01 0.197D+00 0.820D+00
 Gap=     0.635 Goal=   None    Shift=    0.000
 RMSDP=5.95D-04 MaxDP=6.31D-03 DE=-6.12D-03 OVMax= 7.10D-03

 Cycle   4  Pass 1  IDiag  1:
 E= -150.748912708747     Delta-E=       -0.000739342604 Rises=F Damp=F
 DIIS: error= 5.46D-04 at cycle   4 NSaved=   4.
 NSaved= 4 IEnMin= 4 EnMin= -150.748912708747     IErMin= 4 ErrMin= 5.46D-04
 ErrMax= 5.46D-04 EMaxC= 1.00D-01 BMatC= 1.30D-05 BMatP= 9.48D-04
 IDIUse=3 WtCom= 9.95D-01 WtEn= 5.46D-03
 Coeff-Com:  0.363D-03-0.471D-01-0.799D-01 0.113D+01
 Coeff-En:   0.000D+00 0.000D+00 0.000D+00 0.100D+01
 Coeff:      0.361D-03-0.468D-01-0.795D-01 0.113D+01
 Gap=     0.637 Goal=   None    Shift=    0.000
 RMSDP=1.11D-04 MaxDP=8.60D-04 DE=-7.39D-04 OVMax= 1.09D-03

 Cycle   5  Pass 1  IDiag  1:
 E= -150.748930471617     Delta-E=       -0.000017762870 Rises=F Damp=F
 DIIS: error= 9.84D-05 at cycle   5 NSaved=   5.
 NSaved= 5 IEnMin= 5 EnMin= -150.748930471617     IErMin= 5 ErrMin= 9.84D-05
 ErrMax= 9.84D-05 EMaxC= 1.00D-01 BMatC= 6.47D-07 BMatP= 1.30D-05
 IDIUse=1 WtCom= 1.00D+00 WtEn= 0.00D+00
 Coeff-Com:  0.984D-03-0.751D-02-0.357D-01-0.136D+00 0.118D+01
 Coeff:      0.984D-03-0.751D-02-0.357D-01-0.136D+00 0.118D+01
 Gap=     0.638 Goal=   None    Shift=    0.000
 RMSDP=4.41D-05 MaxDP=2.80D-04 DE=-1.78D-05 OVMax= 4.41D-04

 Cycle   6  Pass 1  IDiag  1:
 E= -150.748931989702     Delta-E=       -0.000001518085 Rises=F Damp=F
 DIIS: error= 2.60D-05 at cycle   6 NSaved=   6.
 NSaved= 6 IEnMin= 6 EnMin= -150.748931989702     IErMin= 6 ErrMin= 2.60D-05
 ErrMax= 2.60D-05 EMaxC= 1.00D-01 BMatC= 5.08D-08 BMatP= 6.47D-07
 IDIUse=1 WtCom= 1.00D+00 WtEn= 0.00D+00
 Coeff-Com:  0.478D-04 0.124D-02 0.210D-02-0.466D-01 0.367D-01 0.101D+01
 Coeff:      0.478D-04 0.124D-02 0.210D-02-0.466D-01 0.367D-01 0.101D+01
 Gap=     0.638 Goal=   None    Shift=    0.000
 RMSDP=1.28D-05 MaxDP=6.94D-05 DE=-1.52D-06 OVMax= 1.58D-04

 Cycle   7  Pass 1  IDiag  1:
 E= -150.748932093401     Delta-E=       -0.000000103699 Rises=F Damp=F
 DIIS: error= 1.44D-05 at cycle   7 NSaved=   7.
 NSaved= 7 IEnMin= 7 EnMin= -150.748932093401     IErMin= 7 ErrMin= 1.44D-05
 ErrMax= 1.44D-05 EMaxC= 1.00D-01 BMatC= 1.29D-08 BMatP= 5.08D-08
 IDIUse=1 WtCom= 1.00D+00 WtEn= 0.00D+00
 Coeff-Com: -0.166D-03 0.175D-02 0.742D-02 0.937D-02-0.202D+00 0.267D+00
 Coeff-Com:  0.917D+00
 Coeff:     -0.166D-03 0.175D-02 0.742D-02 0.937D-02-0.202D+00 0.267D+00
 Coeff:      0.917D+00
 Gap=     0.638 Goal=   None    Shift=    0.000
 RMSDP=7.06D-06 MaxDP=3.77D-05 DE=-1.04D-07 OVMax= 9.70D-05

 Cycle   8  Pass 1  IDiag  1:
 E= -150.748932120167     Delta-E=       -0.000000026766 Rises=F Damp=F
 DIIS: error= 6.99D-06 at cycle   8 NSaved=   8.
 NSaved= 8 IEnMin= 8 EnMin= -150.748932120167     IErMin= 8 ErrMin= 6.99D-06
 ErrMax= 6.99D-06 EMaxC= 1.00D-01 BMatC= 1.32D-09 BMatP= 1.29D-08
 IDIUse=1 WtCom= 1.00D+00 WtEn= 0.00D+00
 Coeff-Com:  0.917D-04-0.116D-02-0.474D-02-0.330D-02 0.133D+00-0.294D+00
 Coeff-Com: -0.586D+00 0.176D+01
 Coeff:      0.917D-04-0.116D-02-0.474D-02-0.330D-02 0.133D+00-0.294D+00
 Coeff:     -0.586D+00 0.176D+01
 Gap=     0.638 Goal=   None    Shift=    0.000
 RMSDP=4.55D-06 MaxDP=2.79D-05 DE=-2.68D-08 OVMax= 7.23D-05

 Cycle   9  Pass 1  IDiag  1:
 E= -150.748932125939     Delta-E=       -0.000000005772 Rises=F Damp=F
 DIIS: error= 1.43D-06 at cycle   9 NSaved=   9.
 NSaved= 9 IEnMin= 9 EnMin= -150.748932125939     IErMin= 9 ErrMin= 1.43D-06
 ErrMax= 1.43D-06 EMaxC= 1.00D-01 BMatC= 6.51D-11 BMatP= 1.32D-09
 IDIUse=1 WtCom= 1.00D+00 WtEn= 0.00D+00
 Coeff-Com: -0.257D-04 0.344D-03 0.138D-02 0.117D-02-0.414D-01 0.101D+00
 Coeff-Com:  0.178D+00-0.719D+00 0.148D+01
 Coeff:     -0.257D-04 0.344D-03 0.138D-02 0.117D-02-0.414D-01 0.101D+00
 Coeff:      0.178D+00-0.719D+00 0.148D+01
 Gap=     0.638 Goal=   None    Shift=    0.000
 RMSDP=9.73D-07 MaxDP=5.55D-06 DE=-5.77D-09 OVMax= 1.55D-05

 Cycle  10  Pass 1  IDiag  1:
 E= -150.748932126211     Delta-E=       -0.000000000272 Rises=F Damp=F
 DIIS: error= 2.84D-07 at cycle  10 NSaved=  10.
 NSaved=10 IEnMin=10 EnMin= -150.748932126211     IErMin=10 ErrMin= 2.84D-07
 ErrMax= 2.84D-07 EMaxC= 1.00D-01 BMatC= 3.68D-12 BMatP= 6.51D-11
 IDIUse=1 WtCom= 1.00D+00 WtEn= 0.00D+00
 Coeff-Com:  0.988D-06-0.224D-04-0.726D-04 0.182D-03 0.146D-02-0.788D-02
 Coeff-Com: -0.688D-02 0.900D-01-0.488D+00 0.141D+01
 Coeff:      0.988D-06-0.224D-04-0.726D-04 0.182D-03 0.146D-02-0.788D-02
 Coeff:     -0.688D-02 0.900D-01-0.488D+00 0.141D+01
 Gap=     0.638 Goal=   None    Shift=    0.000
 RMSDP=2.02D-07 MaxDP=9.27D-07 DE=-2.72D-10 OVMax= 2.65D-06

 Cycle  11  Pass 1  IDiag  1:
 E= -150.748932126224     Delta-E=       -0.000000000012 Rises=F Damp=F
 DIIS: error= 3.25D-08 at cycle  11 NSaved=  11.
 NSaved=11 IEnMin=11 EnMin= -150.748932126224     IErMin=11 ErrMin= 3.25D-08
 ErrMax= 3.25D-08 EMaxC= 1.00D-01 BMatC= 5.39D-14 BMatP= 3.68D-12
 IDIUse=1 WtCom= 1.00D+00 WtEn= 0.00D+00
 Coeff-Com:  0.246D-06-0.225D-06-0.660D-05-0.767D-04 0.396D-03 0.453D-03
 Coeff-Com: -0.189D-02-0.138D-01 0.128D+00-0.458D+00 0.134D+01
 Coeff:      0.246D-06-0.225D-06-0.660D-05-0.767D-04 0.396D-03 0.453D-03
 Coeff:     -0.189D-02-0.138D-01 0.128D+00-0.458D+00 0.134D+01
 Gap=     0.638 Goal=   None    Shift=    0.000
 RMSDP=1.61D-08 MaxDP=8.20D-08 DE=-1.23D-11 OVMax= 1.76D-07

 Cycle  12  Pass 1  IDiag  1:
 E= -150.748932126223     Delta-E=        0.000000000000 Rises=F Damp=F
 DIIS: error= 5.79D-09 at cycle  12 NSaved=  12.
 NSaved=12 IEnMin=11 EnMin= -150.748932126224     IErMin=12 ErrMin= 5.79D-09
 ErrMax= 5.79D-09 EMaxC= 1.00D-01 BMatC= 2.33D-15 BMatP= 5.39D-14
 IDIUse=1 WtCom= 1.00D+00 WtEn= 0.00D+00
 Coeff-Com: -0.121D-06 0.788D-06 0.439D-05 0.222D-04-0.180D-03 0.478D-04
 Coeff-Com:  0.782D-03 0.316D-02-0.365D-01 0.137D+00-0.508D+00 0.140D+01
 Coeff:     -0.121D-06 0.788D-06 0.439D-05 0.222D-04-0.180D-03 0.478D-04
 Coeff:      0.782D-03 0.316D-02-0.365D-01 0.137D+00-0.508D+00 0.140D+01
 Gap=     0.638 Goal=   None    Shift=    0.000
 RMSDP=3.68D-09 MaxDP=3.28D-08 DE= 2.27D-13 OVMax= 3.98D-08

 SCF Done:  E(RHF) =  -150.748932126     A.U. after   12 cycles
             Convg  =    0.3681D-08             -V/T =  2.0023
 KE= 1.503981742954D+02 PE=-4.359647778022D+02 EE= 9.585106651968D+01
 Leave Link  502 at Mon Apr 30 11:52:57 2018, MaxMem=  671088640 cpu:      58.0
 (Enter /shared/apps/gaussian/G09_LINUX_LINDA/g09/l601.exe)
 Copying SCF densities to generalized density rwf, IOpCl= 0 IROHF=0.

 **********************************************************************

            Population analysis using the SCF density.

 **********************************************************************

 Orbital symmetries:
       Occupied  (A) (A) (A) (A) (A) (A) (A) (A) (A)
       Virtual   (A) (A) (A) (A) (A) (A) (A) (A) (A) (A) (A) (A)
                 (A) (A) (A) (A) (A) (A) (A) (A) (A) (A) (A) (A)
                 (A)
 The electronic state is 1-A.
 Alpha  occ. eigenvalues --  -20.61902 -20.61518  -1.52310  -1.17107  -0.72791
 Alpha  occ. eigenvalues --   -0.71550  -0.64265  -0.49571  -0.42210
 Alpha virt. eigenvalues --    0.21565   0.22580   0.42653   0.99524   1.05977
 Alpha virt. eigenvalues --    1.06181   1.10791   1.14211   1.22640   1.23900
 Alpha virt. eigenvalues --    1.35224   1.44792   1.57641   1.79603   1.84237
 Alpha virt. eigenvalues --    2.02080   2.07959   2.48342   2.69836   2.79261
 Alpha virt. eigenvalues --    2.84367   2.87695   3.24221   3.85907   4.09380
          Condensed to atoms (all electrons):
              1          2          3          4
     1  O    8.225005   0.022355   0.253905  -0.030804
     2  O    0.022355   8.205806  -0.027443   0.255410
     3  H    0.253905  -0.027443   0.306867   0.003076
     4  H   -0.030804   0.255410   0.003076   0.309324
 Mulliken atomic charges:
              1
     1  O   -0.470461
     2  O   -0.456128
     3  H    0.463595
     4  H    0.462993
 Sum of Mulliken atomic charges =   0.00000
 Mulliken charges with hydrogens summed into heavy atoms:
              1
     1  O   -0.006866
     2  O    0.006866
 Sum of Mulliken charges with hydrogens summed into heavy atoms =   0.00000
 Electronic spatial extent (au):  <R**2>=             60.8777
 Charge=              0.0000 electrons
 Dipole moment (field-independent basis, Debye):
    X=              0.0760    Y=              0.0598    Z=              1.0643  Tot=              1.0687
 Quadrupole moment (field-independent basis, Debye-Ang):
   XX=             -8.4576   YY=            -10.2297   ZZ=            -12.2130
   XY=             -4.1056   XZ=              0.0710   YZ=              0.0116
 Traceless Quadrupole moment (field-independent basis, Debye-Ang):
   XX=              1.8425   YY=              0.0704   ZZ=             -1.9130
   XY=             -4.1056   XZ=              0.0710   YZ=              0.0116
 Octapole moment (field-independent basis, Debye-Ang**2):
  XXX=              0.4932  YYY=              0.1339  ZZZ=              0.5207  XYY=             -0.1024
  XXY=             -0.0262  XXZ=              1.7159  XZZ=              0.0324  YZZ=              0.0082
  YYZ=              0.5079  XYZ=             -0.8505
 Hexadecapole moment (field-independent basis, Debye-Ang**3):
 XXXX=            -32.6578 YYYY=            -10.6199 ZZZZ=             -8.9756 XXXY=             -6.3986
 XXXZ=              0.1803 YYYX=             -3.4121 YYYZ=              0.0338 ZZZX=              0.0447
 ZZZY=              0.0045 XXYY=             -6.6546 XXZZ=             -8.7370 YYZZ=             -3.3241
 XXYZ=             -0.0267 YYXZ=             -0.0014 ZZXY=             -0.8803
 N-N= 3.896660486092D+01 E-N=-4.359647778002D+02  KE= 1.503981742954D+02
 No NMR shielding tensors so no spin-rotation constants.
 Leave Link  601 at Mon Apr 30 11:52:58 2018, MaxMem=  671088640 cpu:       7.8
 (Enter /shared/apps/gaussian/G09_LINUX_LINDA/g09/l701.exe)
 Compute integral first derivatives.
 ... and contract with generalized density number  0.
 Leave Link  701 at Mon Apr 30 11:52:59 2018, MaxMem=  671088640 cpu:       7.5
 (Enter /shared/apps/gaussian/G09_LINUX_LINDA/g09/l702.exe)
 L702 exits ... SP integral derivatives will be done elsewhere.
 Leave Link  702 at Mon Apr 30 11:52:59 2018, MaxMem=  671088640 cpu:       0.2
 (Enter /shared/apps/gaussian/G09_LINUX_LINDA/g09/l703.exe)
 Compute integral first derivatives, UseDBF=F ICtDFT=           0.
 Integral derivatives from FoFDir, PRISM(SPDF).
 Calling FoFJK, ICntrl=      2127 FMM=F ISym2X=0 I1Cent= 0 IOpClX= 0 NMat=1 NMatS=1 NMatT=0.
 FoFCou: FMM=F IPFlag=           0 FMFlag=      100000 FMFlg1=         800
         NFxFlg=           0 DoJE=F BraDBF=F KetDBF=F FulRan=T
         Omega=  0.000000  0.000000  1.000000  0.000000  0.000000 ICntrl=    2127 IOpCl=  0
         NMat0=    1 NMatS0=    1 NMatT0=    0 NMatD0=    1 NMtDS0=    0 NMtDT0=    0
         I1Cent=           0 NGrid=           0.
 Symmetry not used in FoFCou.
 Leave Link  703 at Mon Apr 30 11:53:00 2018, MaxMem=  671088640 cpu:       5.5
 (Enter /shared/apps/gaussian/G09_LINUX_LINDA/g09/l716.exe)
 Dipole        = 2.98898602D-02 2.35134291D-02 4.18727257D-01
 ***** Axes restored to original set *****
 -------------------------------------------------------------------
 Center     Atomic                   Forces (Hartrees/Bohr)
 Number     Number              X              Y              Z
 -------------------------------------------------------------------
      1        8           0.088234259   -0.060324845   -0.000936631
      2        8          -0.087570246    0.046991064   -0.011158966
      3        1          -0.046944420   -0.002252838    0.004867176
      4        1           0.046280407    0.015586619    0.007228421
 -------------------------------------------------------------------
 Cartesian Forces:  Max     0.088234259 RMS     0.046633403
 Leave Link  716 at Mon Apr 30 11:53:00 2018, MaxMem=  671088640 cpu:       0.4
 (Enter /shared/apps/gaussian/G09_LINUX_LINDA/g09/l103.exe)

 GradGradGradGradGradGradGradGradGradGradGradGradGradGradGradGradGradGrad
 Berny optimization.
 Internal  Forces:  Max     0.069927640 RMS     0.043789561
 Search for a local minimum.
 Step number   1 out of a maximum of   20
 All quantities printed in internal units (Hartrees-Bohrs-Radians)
 Swaping is turned off.
 Second derivative matrix not updated -- first step.
 The second derivative matrix:
                          R1        R2        R3        A1        A2
           R1           0.63473
           R2           0.00000   0.49696
           R3           0.00000   0.00000   0.48404
           A1           0.00000   0.00000   0.00000   0.16000
           A2           0.00000   0.00000   0.00000   0.00000   0.16000
           D1           0.00000   0.00000   0.00000   0.00000   0.00000
                          D1
           D1           0.02434
 ITU=  0
     Eigenvalues ---    0.02434   0.16000   0.16000   0.48404   0.49696
     Eigenvalues ---    0.63473
 Quadratic step=4.513D-01 exceeds max=3.000D-01 adjusted using Lamda=-5.284D-02.
 Angle between NR and scaled steps=  20.18 degrees.
 Angle between quadratic step and forces=  31.40 degrees.
 Linear search not attempted -- option 19 set.
 Iteration  1 RMS(Cart)=  0.13136741 RMS(Int)=  0.00951044
 Iteration  2 RMS(Cart)=  0.00884287 RMS(Int)=  0.00001955
 Iteration  3 RMS(Cart)=  0.00001876 RMS(Int)=  0.00000000
 Iteration  4 RMS(Cart)=  0.00000000 RMS(Int)=  0.00000000
 Variable       Old X    -DE/DX   Delta X   Delta X   Delta X     New X
                                 (Linear)    (Quad)   (Total)
    R1        2.48293   0.06993   0.00000   0.10170   0.10170   2.58463
    R2        1.86873  -0.04094   0.00000  -0.07446  -0.07446   1.79427
    R3        1.88211  -0.04687   0.00000  -0.08730  -0.08730   1.79481
    A1        1.95382  -0.04353   0.00000  -0.20454  -0.20454   1.74928
    A2        1.88612  -0.02839   0.00000  -0.13339  -0.13339   1.75273
    D1        2.56860  -0.00643   0.00000  -0.08335  -0.08335   2.48525
         Item               Value     Threshold  Converged?
 Maximum Force            0.069928     0.000002     NO 
 RMS     Force            0.043790     0.000001     NO 
 Maximum Displacement     0.224788     0.000006     NO 
 RMS     Displacement     0.136587     0.000004     NO 
 Predicted change in Energy=-1.611964D-02
 GradGradGradGradGradGradGradGradGradGradGradGradGradGradGradGradGradGrad

 Leave Link  103 at Mon Apr 30 11:53:02 2018, MaxMem=  671088640 cpu:      18.8
 (Enter /shared/apps/gaussian/G09_LINUX_LINDA/g09/l202.exe)
                          Input orientation:                          
 ---------------------------------------------------------------------
 Center     Atomic      Atomic             Coordinates (Angstroms)
 Number     Number       Type             X           Y           Z
 ---------------------------------------------------------------------
      1          8           0        0.535045   -0.418634    0.173010
      2          8           0       -0.534541    0.432616    0.127789
      3          1           0        1.218847    0.152249   -0.155670
      4          1           0       -1.219352   -0.166231   -0.145128
 ---------------------------------------------------------------------
                    Distance matrix (angstroms):
                    1          2          3          4
     1  O    0.000000
     2  O    1.367730   0.000000
     3  H    0.949485   1.798144   0.000000
     4  H    1.800785   0.949772   2.458933   0.000000
 Stoichiometry    H2O2
 Framework group  C1[X(H2O2)]
 Deg. of freedom     6
 Full point group                 C1      NOp   1
 Largest Abelian subgroup         C1      NOp   1
 Largest concise Abelian subgroup C1      NOp   1
                         Standard orientation:                         
 ---------------------------------------------------------------------
 Center     Atomic      Atomic             Coordinates (Angstroms)
 Number     Number       Type             X           Y           Z
 ---------------------------------------------------------------------
      1          8           0       -0.671168   -0.132137   -0.033365
      2          8           0        0.670811    0.132016   -0.033550
      3          1           0       -1.007372    0.703275    0.267594
      4          1           0        1.010222   -0.702309    0.267729
 ---------------------------------------------------------------------
 Rotational constants (GHZ):    317.0450187     30.1585799     28.0648338
 Leave Link  202 at Mon Apr 30 11:53:02 2018, MaxMem=  671088640 cpu:       0.8
 (Enter /shared/apps/gaussian/G09_LINUX_LINDA/g09/l301.exe)
 Standard basis: 6-31G(d) (6D, 7F)
 Ernie: Thresh=  0.10000D-02 Tol=  0.10000D-05 Strict=F.
 There are    34 symmetry adapted basis functions of A   symmetry.
 Integral buffers will be    131072 words long.
 Raffenetti 1 integral format.
 Two-electron integral symmetry is turned on.
    34 basis functions,    64 primitive gaussians,    34 cartesian basis functions
     9 alpha electrons        9 beta electrons
       nuclear repulsion energy        38.5980730192 Hartrees.
 IExCor=    0 DFT=F Ex=HF Corr=None ExCW=0 ScaHFX=  1.000000
 ScaDFX=  1.000000  1.000000  1.000000  1.000000 ScalE2=  1.000000  1.000000
 IRadAn=      0 IRanWt=     -1 IRanGd=            0 ICorTp=0
 NAtoms=    4 NActive=    4 NUniq=    4 SFac= 1.00D+00 NAtFMM=   50 NAOKFM=F Big=F
 Leave Link  301 at Mon Apr 30 11:53:02 2018, MaxMem=  671088640 cpu:       0.9
 (Enter /shared/apps/gaussian/G09_LINUX_LINDA/g09/l302.exe)
 NPDir=0 NMtPBC=     1 NCelOv=     1 NCel=       1 NClECP=     1 NCelD=      1
         NCelK=      1 NCelE2=     1 NClLst=     1 CellRange=     0.0.
 One-electron integrals computed using PRISM.
 NBasis=    34 RedAO= T  NBF=    34
 NBsUse=    34 1.00D-06 NBFU=    34
 Leave Link  302 at Mon Apr 30 11:53:03 2018, MaxMem=  671088640 cpu:       6.9
 (Enter /shared/apps/gaussian/G09_LINUX_LINDA/g09/l303.exe)
 DipDrv:  MaxL=1.
 Leave Link  303 at Mon Apr 30 11:53:03 2018, MaxMem=  671088640 cpu:       1.6
 (Enter /shared/apps/gaussian/G09_LINUX_LINDA/g09/l401.exe)
 Initial guess read from the read-write file.
 B after Tr=     0.000000    0.000000    0.000000
         Rot=    1.000000    0.000000    0.000000    0.000000 Ang=   0.00 deg.
 Guess basis will be translated and rotated to current coordinates.
 Initial guess orbital symmetries:
       Occupied  (A) (A) (A) (A) (A) (A) (A) (A) (A)
       Virtual   (A) (A) (A) (A) (A) (A) (A) (A) (A) (A) (A) (A)
                 (A) (A) (A) (A) (A) (A) (A) (A) (A) (A) (A) (A)
                 (A)
 The electronic state of the initial guess is 1-A.
 Generating alternative initial guess.
 Harris functional with IExCor=  205 diagonalized for initial guess.
 ExpMin= 1.61D-01 ExpMax= 5.48D+03 ExpMxC= 8.25D+02 IAcc=1 IRadAn=         1 AccDes= 0.00D+00
 HarFok:  IExCor=  205 AccDes= 0.00D+00 IRadAn=         1 IDoV= 1
 ScaDFX=  1.000000  1.000000  1.000000  1.000000
 FoFCou: FMM=F IPFlag=           0 FMFlag=      100000 FMFlg1=           0
         NFxFlg=           0 DoJE=T BraDBF=F KetDBF=T FulRan=T
         Omega=  0.000000  0.000000  1.000000  0.000000  0.000000 ICntrl=     500 IOpCl=  0
         NMat0=    1 NMatS0=    1 NMatT0=    0 NMatD0=    1 NMtDS0=    0 NMtDT0=    0
         I1Cent=           4 NGrid=           0.
 Petite list used in FoFCou.
 Harris En= -150.848118259336    
 Leave Link  401 at Mon Apr 30 11:53:05 2018, MaxMem=  671088640 cpu:      16.8
 (Enter /shared/apps/gaussian/G09_LINUX_LINDA/g09/l502.exe)
 Closed shell SCF:
 Requested convergence on RMS density matrix=1.00D-08 within 128 cycles.
 Requested convergence on MAX density matrix=1.00D-06.
 Requested convergence on             energy=1.00D-06.
 No special actions if energy rises.
 Using DIIS extrapolation, IDIIS=  1040.
 Integral symmetry usage will be decided dynamically.
 Keep R1 ints in memory in canonical form, NReq=1019876.
 IEnd=       22552 IEndB=       22552 NGot=   671088640 MDV=   670906581
 LenX=   670906581 LenY=   670904984
 Symmetry not used in FoFDir.
 MinBra= 0 MaxBra= 2 Meth= 1.
 IRaf=       0 NMat=   1 IRICut=       1 DoRegI=T DoRafI=F ISym2E= 0 JSym2E=0.

 Cycle   1  Pass 1  IDiag  1:
 E= -148.760828672691    
 DIIS: error= 1.62D-01 at cycle   1 NSaved=   1.
 NSaved= 1 IEnMin= 1 EnMin= -148.760828672691     IErMin= 1 ErrMin= 1.62D-01
 ErrMax= 1.62D-01 EMaxC= 1.00D-01 BMatC= 9.76D-01 BMatP= 9.76D-01
 IDIUse=3 WtCom= 0.00D+00 WtEn= 1.00D+00
 Coeff-Com:  0.100D+01
 Coeff-En:   0.100D+01
 Coeff:      0.100D+01
 Recover alternate guess density for next cycle.
 RMSDP=4.96D-02 MaxDP=4.20D-01              OVMax= 0.00D+00

 Cycle   2  Pass 1  IDiag  1:
 E= -150.718284732201     Delta-E=       -1.957456059510 Rises=F Damp=F
 DIIS: error= 5.12D-02 at cycle   2 NSaved=   2.
 NSaved= 2 IEnMin= 2 EnMin= -150.718284732201     IErMin= 2 ErrMin= 5.12D-02
 ErrMax= 5.12D-02 EMaxC= 1.00D-01 BMatC= 1.10D-01 BMatP= 9.76D-01
 IDIUse=3 WtCom= 4.88D-01 WtEn= 5.12D-01
 Coeff-Com: -0.768D-03 0.100D+01
 Coeff-En:   0.000D+00 0.100D+01
 Coeff:     -0.375D-03 0.100D+01
 Gap=     0.782 Goal=   None    Shift=    0.000
 RMSDP=5.80D-03 MaxDP=5.70D-02 DE=-1.96D+00 OVMax= 5.78D-02

 Cycle   3  Pass 1  IDiag  1:
 E= -150.757243353494     Delta-E=       -0.038958621293 Rises=F Damp=F
 DIIS: error= 1.31D-02 at cycle   3 NSaved=   3.
 NSaved= 3 IEnMin= 3 EnMin= -150.757243353494     IErMin= 3 ErrMin= 1.31D-02
 ErrMax= 1.31D-02 EMaxC= 1.00D-01 BMatC= 8.96D-03 BMatP= 1.10D-01
 IDIUse=3 WtCom= 8.69D-01 WtEn= 1.31D-01
 Coeff-Com:  0.327D-01 0.847D-01 0.883D+00
 Coeff-En:   0.000D+00 0.000D+00 0.100D+01
 Coeff:      0.284D-01 0.737D-01 0.898D+00
 Gap=     0.676 Goal=   None    Shift=    0.000
 RMSDP=2.18D-03 MaxDP=2.03D-02 DE=-3.90D-02 OVMax= 1.78D-02

 Cycle   4  Pass 1  IDiag  1:
 E= -150.762351571766     Delta-E=       -0.005108218272 Rises=F Damp=F
 DIIS: error= 3.52D-03 at cycle   4 NSaved=   4.
 NSaved= 4 IEnMin= 4 EnMin= -150.762351571766     IErMin= 4 ErrMin= 3.52D-03
 ErrMax= 3.52D-03 EMaxC= 1.00D-01 BMatC= 6.38D-04 BMatP= 8.96D-03
 IDIUse=3 WtCom= 9.65D-01 WtEn= 3.52D-02
 Coeff-Com: -0.611D-02-0.142D-01 0.154D+00 0.867D+00
 Coeff-En:   0.000D+00 0.000D+00 0.000D+00 0.100D+01
 Coeff:     -0.590D-02-0.137D-01 0.148D+00 0.871D+00
 Gap=     0.668 Goal=   None    Shift=    0.000
 RMSDP=5.40D-04 MaxDP=6.07D-03 DE=-5.11D-03 OVMax= 7.17D-03

 Cycle   5  Pass 1  IDiag  1:
 E= -150.762937780806     Delta-E=       -0.000586209040 Rises=F Damp=F
 DIIS: error= 3.87D-04 at cycle   5 NSaved=   5.
 NSaved= 5 IEnMin= 5 EnMin= -150.762937780806     IErMin= 5 ErrMin= 3.87D-04
 ErrMax= 3.87D-04 EMaxC= 1.00D-01 BMatC= 9.87D-06 BMatP= 6.38D-04
 IDIUse=3 WtCom= 9.96D-01 WtEn= 3.87D-03
 Coeff-Com:  0.415D-03 0.117D-02-0.397D-01-0.951D-01 0.113D+01
 Coeff-En:   0.000D+00 0.000D+00 0.000D+00 0.000D+00 0.100D+01
 Coeff:      0.414D-03 0.116D-02-0.396D-01-0.947D-01 0.113D+01
 Gap=     0.669 Goal=   None    Shift=    0.000
 RMSDP=9.92D-05 MaxDP=8.29D-04 DE=-5.86D-04 OVMax= 1.11D-03

 Cycle   6  Pass 1  IDiag  1:
 E= -150.762952089525     Delta-E=       -0.000014308719 Rises=F Damp=F
 DIIS: error= 1.01D-04 at cycle   6 NSaved=   6.
 NSaved= 6 IEnMin= 6 EnMin= -150.762952089525     IErMin= 6 ErrMin= 1.01D-04
 ErrMax= 1.01D-04 EMaxC= 1.00D-01 BMatC= 5.09D-07 BMatP= 9.87D-06
 IDIUse=3 WtCom= 9.99D-01 WtEn= 1.01D-03
 Coeff-Com:  0.156D-03 0.718D-03-0.491D-02-0.344D-01-0.109D+00 0.115D+01
 Coeff-En:   0.000D+00 0.000D+00 0.000D+00 0.000D+00 0.000D+00 0.100D+01
 Coeff:      0.156D-03 0.718D-03-0.491D-02-0.344D-01-0.109D+00 0.115D+01
 Gap=     0.670 Goal=   None    Shift=    0.000
 RMSDP=3.65D-05 MaxDP=2.64D-04 DE=-1.43D-05 OVMax= 4.59D-04

 Cycle   7  Pass 1  IDiag  1:
 E= -150.762953285791     Delta-E=       -0.000001196265 Rises=F Damp=F
 DIIS: error= 2.36D-05 at cycle   7 NSaved=   7.
 NSaved= 7 IEnMin= 7 EnMin= -150.762953285791     IErMin= 7 ErrMin= 2.36D-05
 ErrMax= 2.36D-05 EMaxC= 1.00D-01 BMatC= 2.39D-08 BMatP= 5.09D-07
 IDIUse=1 WtCom= 1.00D+00 WtEn= 0.00D+00
 Coeff-Com: -0.468D-04-0.146D-03 0.198D-02 0.967D-02-0.247D-01-0.238D+00
 Coeff-Com:  0.125D+01
 Coeff:     -0.468D-04-0.146D-03 0.198D-02 0.967D-02-0.247D-01-0.238D+00
 Coeff:      0.125D+01
 Gap=     0.670 Goal=   None    Shift=    0.000
 RMSDP=1.06D-05 MaxDP=8.39D-05 DE=-1.20D-06 OVMax= 1.43D-04

 Cycle   8  Pass 1  IDiag  1:
 E= -150.762953345498     Delta-E=       -0.000000059707 Rises=F Damp=F
 DIIS: error= 4.80D-06 at cycle   8 NSaved=   8.
 NSaved= 8 IEnMin= 8 EnMin= -150.762953345498     IErMin= 8 ErrMin= 4.80D-06
 ErrMax= 4.80D-06 EMaxC= 1.00D-01 BMatC= 2.26D-09 BMatP= 2.39D-08
 IDIUse=1 WtCom= 1.00D+00 WtEn= 0.00D+00
 Coeff-Com: -0.194D-04-0.596D-04 0.745D-03 0.393D-02-0.501D-02-0.969D-01
 Coeff-Com:  0.333D+00 0.764D+00
 Coeff:     -0.194D-04-0.596D-04 0.745D-03 0.393D-02-0.501D-02-0.969D-01
 Coeff:      0.333D+00 0.764D+00
 Gap=     0.670 Goal=   None    Shift=    0.000
 RMSDP=1.49D-06 MaxDP=1.22D-05 DE=-5.97D-08 OVMax= 2.02D-05

 Cycle   9  Pass 1  IDiag  1:
 E= -150.762953347901     Delta-E=       -0.000000002403 Rises=F Damp=F
 DIIS: error= 1.87D-06 at cycle   9 NSaved=   9.
 NSaved= 9 IEnMin= 9 EnMin= -150.762953347901     IErMin= 9 ErrMin= 1.87D-06
 ErrMax= 1.87D-06 EMaxC= 1.00D-01 BMatC= 2.48D-10 BMatP= 2.26D-09
 IDIUse=1 WtCom= 1.00D+00 WtEn= 0.00D+00
 Coeff-Com:  0.439D-05 0.201D-04-0.218D-03-0.114D-02 0.205D-02 0.363D-01
 Coeff-Com: -0.181D+00 0.590D-01 0.108D+01
 Coeff:      0.439D-05 0.201D-04-0.218D-03-0.114D-02 0.205D-02 0.363D-01
 Coeff:     -0.181D+00 0.590D-01 0.108D+01
 Gap=     0.670 Goal=   None    Shift=    0.000
 RMSDP=8.43D-07 MaxDP=4.63D-06 DE=-2.40D-09 OVMax= 1.09D-05

 Cycle  10  Pass 1  IDiag  1:
 E= -150.762953348369     Delta-E=       -0.000000000468 Rises=F Damp=F
 DIIS: error= 4.79D-07 at cycle  10 NSaved=  10.
 NSaved=10 IEnMin=10 EnMin= -150.762953348369     IErMin=10 ErrMin= 4.79D-07
 ErrMax= 4.79D-07 EMaxC= 1.00D-01 BMatC= 1.15D-11 BMatP= 2.48D-10
 IDIUse=1 WtCom= 1.00D+00 WtEn= 0.00D+00
 Coeff-Com: -0.109D-05-0.381D-05 0.295D-04 0.137D-03-0.600D-03-0.416D-02
 Coeff-Com:  0.325D-01-0.642D-01-0.318D+00 0.135D+01
 Coeff:     -0.109D-05-0.381D-05 0.295D-04 0.137D-03-0.600D-03-0.416D-02
 Coeff:      0.325D-01-0.642D-01-0.318D+00 0.135D+01
 Gap=     0.670 Goal=   None    Shift=    0.000
 RMSDP=2.64D-07 MaxDP=1.82D-06 DE=-4.68D-10 OVMax= 3.44D-06

 Cycle  11  Pass 1  IDiag  1:
 E= -150.762953348407     Delta-E=       -0.000000000038 Rises=F Damp=F
 DIIS: error= 1.52D-07 at cycle  11 NSaved=  11.
 NSaved=11 IEnMin=11 EnMin= -150.762953348407     IErMin=11 ErrMin= 1.52D-07
 ErrMax= 1.52D-07 EMaxC= 1.00D-01 BMatC= 8.76D-13 BMatP= 1.15D-11
 IDIUse=1 WtCom= 1.00D+00 WtEn= 0.00D+00
 Coeff-Com:  0.324D-06 0.625D-06-0.941D-06-0.224D-05 0.167D-03-0.151D-03
 Coeff-Com: -0.372D-02 0.213D-01 0.656D-01-0.502D+00 0.142D+01
 Coeff:      0.324D-06 0.625D-06-0.941D-06-0.224D-05 0.167D-03-0.151D-03
 Coeff:     -0.372D-02 0.213D-01 0.656D-01-0.502D+00 0.142D+01
 Gap=     0.670 Goal=   None    Shift=    0.000
 RMSDP=7.68D-08 MaxDP=5.47D-07 DE=-3.79D-11 OVMax= 1.43D-06

 Cycle  12  Pass 1  IDiag  1:
 E= -150.762953348410     Delta-E=       -0.000000000003 Rises=F Damp=F
 DIIS: error= 6.42D-08 at cycle  12 NSaved=  12.
 NSaved=12 IEnMin=12 EnMin= -150.762953348410     IErMin=12 ErrMin= 6.42D-08
 ErrMax= 6.42D-08 EMaxC= 1.00D-01 BMatC= 1.25D-13 BMatP= 8.76D-13
 IDIUse=1 WtCom= 1.00D+00 WtEn= 0.00D+00
 Coeff-Com: -0.110D-06-0.929D-08-0.176D-05-0.408D-05 0.762D-05 0.971D-04
 Coeff-Com: -0.714D-03-0.767D-03 0.482D-02 0.569D-01-0.656D+00 0.160D+01
 Coeff:     -0.110D-06-0.929D-08-0.176D-05-0.408D-05 0.762D-05 0.971D-04
 Coeff:     -0.714D-03-0.767D-03 0.482D-02 0.569D-01-0.656D+00 0.160D+01
 Gap=     0.670 Goal=   None    Shift=    0.000
 RMSDP=3.95D-08 MaxDP=2.70D-07 DE=-3.24D-12 OVMax= 7.40D-07

 Cycle  13  Pass 1  IDiag  1:
 E= -150.762953348411     Delta-E=       -0.000000000001 Rises=F Damp=F
 DIIS: error= 1.43D-08 at cycle  13 NSaved=  13.
 NSaved=13 IEnMin=13 EnMin= -150.762953348411     IErMin=13 ErrMin= 1.43D-08
 ErrMax= 1.43D-08 EMaxC= 1.00D-01 BMatC= 7.93D-15 BMatP= 1.25D-13
 IDIUse=1 WtCom= 1.00D+00 WtEn= 0.00D+00
 Coeff-Com:  0.204D-07-0.105D-06 0.150D-05 0.492D-05-0.234D-04-0.932D-04
 Coeff-Com:  0.101D-02-0.191D-02-0.107D-01 0.243D-01 0.178D+00-0.710D+00
 Coeff-Com:  0.152D+01
 Coeff:      0.204D-07-0.105D-06 0.150D-05 0.492D-05-0.234D-04-0.932D-04
 Coeff:      0.101D-02-0.191D-02-0.107D-01 0.243D-01 0.178D+00-0.710D+00
 Coeff:      0.152D+01
 Gap=     0.670 Goal=   None    Shift=    0.000
 RMSDP=1.04D-08 MaxDP=6.02D-08 DE=-5.68D-13 OVMax= 1.82D-07

 Cycle  14  Pass 1  IDiag  1:
 E= -150.762953348411     Delta-E=        0.000000000000 Rises=F Damp=F
 DIIS: error= 3.75D-09 at cycle  14 NSaved=  14.
 NSaved=14 IEnMin=13 EnMin= -150.762953348411     IErMin=14 ErrMin= 3.75D-09
 ErrMax= 3.75D-09 EMaxC= 1.00D-01 BMatC= 6.21D-16 BMatP= 7.93D-15
 IDIUse=1 WtCom= 1.00D+00 WtEn= 0.00D+00
 Coeff-Com: -0.508D-08 0.308D-07-0.428D-06-0.143D-05 0.655D-05 0.260D-04
 Coeff-Com: -0.319D-03 0.782D-03 0.387D-02-0.122D-01-0.368D-01 0.205D+00
 Coeff-Com: -0.734D+00 0.157D+01
 Coeff:     -0.508D-08 0.308D-07-0.428D-06-0.143D-05 0.655D-05 0.260D-04
 Coeff:     -0.319D-03 0.782D-03 0.387D-02-0.122D-01-0.368D-01 0.205D+00
 Coeff:     -0.734D+00 0.157D+01
 Gap=     0.670 Goal=   None    Shift=    0.000
 RMSDP=3.37D-09 MaxDP=1.99D-08 DE= 5.68D-14 OVMax= 5.52D-08

 SCF Done:  E(RHF) =  -150.762953348     A.U. after   14 cycles
             Convg  =    0.3373D-08             -V/T =  2.0019
 KE= 1.504733925195D+02 PE=-4.351892124739D+02 EE= 9.535479358678D+01
 Leave Link  502 at Mon Apr 30 11:53:10 2018, MaxMem=  671088640 cpu:      46.4
 (Enter /shared/apps/gaussian/G09_LINUX_LINDA/g09/l701.exe)
 Compute integral first derivatives.
 ... and contract with generalized density number  0.
 Leave Link  701 at Mon Apr 30 11:53:11 2018, MaxMem=  671088640 cpu:       7.7
 (Enter /shared/apps/gaussian/G09_LINUX_LINDA/g09/l702.exe)
 L702 exits ... SP integral derivatives will be done elsewhere.
 Leave Link  702 at Mon Apr 30 11:53:11 2018, MaxMem=  671088640 cpu:       0.3
 (Enter /shared/apps/gaussian/G09_LINUX_LINDA/g09/l703.exe)
 Compute integral first derivatives, UseDBF=F ICtDFT=           0.
 Integral derivatives from FoFDir, PRISM(SPDF).
 Calling FoFJK, ICntrl=      2127 FMM=F ISym2X=0 I1Cent= 0 IOpClX= 0 NMat=1 NMatS=1 NMatT=0.
 FoFCou: FMM=F IPFlag=           0 FMFlag=      100000 FMFlg1=         800
         NFxFlg=           0 DoJE=F BraDBF=F KetDBF=F FulRan=T
         Omega=  0.000000  0.000000  1.000000  0.000000  0.000000 ICntrl=    2127 IOpCl=  0
         NMat0=    1 NMatS0=    1 NMatT0=    0 NMatD0=    1 NMtDS0=    0 NMtDT0=    0
         I1Cent=           0 NGrid=           0.
 Symmetry not used in FoFCou.
 Leave Link  703 at Mon Apr 30 11:53:11 2018, MaxMem=  671088640 cpu:       4.8
 (Enter /shared/apps/gaussian/G09_LINUX_LINDA/g09/l716.exe)
 Dipole        = 1.73104682D-03 4.27040886D-04 4.71256544D-01
 ***** Axes restored to original set *****
 -------------------------------------------------------------------
 Center     Atomic                   Forces (Hartrees/Bohr)
 Number     Number              X              Y              Z
 -------------------------------------------------------------------
      1        8           0.028362166   -0.009914378    0.000937808
      2        8          -0.028938875    0.010107516   -0.000059633
      3        1           0.002903081   -0.005369558   -0.000209127
      4        1          -0.002326371    0.005176419   -0.000669048
 -------------------------------------------------------------------
 Cartesian Forces:  Max     0.028938875 RMS     0.012626591
 Leave Link  716 at Mon Apr 30 11:53:12 2018, MaxMem=  671088640 cpu:       0.3
 (Enter /shared/apps/gaussian/G09_LINUX_LINDA/g09/l103.exe)

 GradGradGradGradGradGradGradGradGradGradGradGradGradGradGradGradGradGrad
 Berny optimization.
 Using GDIIS optimizer.
 Internal  Forces:  Max     0.033986438 RMS     0.015102640
 Search for a local minimum.
 Step number   2 out of a maximum of   20
 All quantities printed in internal units (Hartrees-Bohrs-Radians)
 Swaping is turned off.
 Update second derivatives using D2CorX and points    1    2
 DE= -1.40D-02 DEPred=-1.61D-02 R= 8.70D-01
 SS=  1.41D+00  RLast= 3.00D-01 DXNew= 5.0454D-01 9.0043D-01
 Trust test= 8.70D-01 RLast= 3.00D-01 DXMaxT set to 5.05D-01
 The second derivative matrix:
                          R1        R2        R3        A1        A2
           R1           0.49899
           R2           0.05225   0.49537
           R3           0.05975  -0.00191   0.48177
           A1           0.02123   0.02631   0.02992   0.22087
           A2           0.01012   0.02129   0.02423   0.04531   0.19350
           D1           0.00010   0.00298   0.00339   0.00560   0.00410
                          D1
           D1           0.02483
 ITU=  1  0
     Eigenvalues ---    0.02460   0.15976   0.24367   0.41532   0.49142
     Eigenvalues ---    0.58056
 DIIS coeff's:      1.01414     -0.01414
 Cosine:  1.000 >  0.970
 Length:  1.000
 GDIIS step was calculated using  2 of the last  2 vectors.
 Iteration  1 RMS(Cart)=  0.05143442 RMS(Int)=  0.00178662
 Iteration  2 RMS(Cart)=  0.00127074 RMS(Int)=  0.00000143
 Iteration  3 RMS(Cart)=  0.00000215 RMS(Int)=  0.00000000
 Iteration  4 RMS(Cart)=  0.00000000 RMS(Int)=  0.00000000
 Variable       Old X    -DE/DX   Delta X   Delta X   Delta X     New X
                                  (DIIS)     (GDIIS)  (Total)
    R1        2.58463   0.03399   0.00144   0.06735   0.06879   2.65343
    R2        1.79427  -0.00107  -0.00105  -0.01171  -0.01276   1.78151
    R3        1.79481  -0.00139  -0.00123  -0.01409  -0.01533   1.77948
    A1        1.74928   0.01056  -0.00289   0.04142   0.03853   1.78781
    A2        1.75273   0.00970  -0.00189   0.04483   0.04294   1.79567
    D1        2.48525  -0.00216  -0.00118  -0.09839  -0.09957   2.38568
         Item               Value     Threshold  Converged?
 Maximum Force            0.033986     0.000002     NO 
 RMS     Force            0.015103     0.000001     NO 
 Maximum Displacement     0.057150     0.000006     NO 
 RMS     Displacement     0.051419     0.000004     NO 
 Predicted change in Energy=-1.706009D-03
 GradGradGradGradGradGradGradGradGradGradGradGradGradGradGradGradGradGrad

 Leave Link  103 at Mon Apr 30 11:53:14 2018, MaxMem=  671088640 cpu:      19.3
 (Enter /shared/apps/gaussian/G09_LINUX_LINDA/g09/l202.exe)
                          Input orientation:                          
 ---------------------------------------------------------------------
 Center     Atomic      Atomic             Coordinates (Angstroms)
 Number     Number       Type             X           Y           Z
 ---------------------------------------------------------------------
      1          8           0        0.565288   -0.409435    0.192194
      2          8           0       -0.564098    0.423639    0.146763
      3          1           0        1.237847    0.140229   -0.174247
      4          1           0       -1.239036   -0.154434   -0.164710
 ---------------------------------------------------------------------
                    Distance matrix (angstroms):
                    1          2          3          4
     1  O    0.000000
     2  O    1.404133   0.000000
     3  H    0.942733   1.852128   0.000000
     4  H    1.856877   0.941661   2.494368   0.000000
 Stoichiometry    H2O2
 Framework group  C1[X(H2O2)]
 Deg. of freedom     6
 Full point group                 C1      NOp   1
 Largest Abelian subgroup         C1      NOp   1
 Largest concise Abelian subgroup C1      NOp   1
                         Standard orientation:                         
 ---------------------------------------------------------------------
 Center     Atomic      Atomic             Coordinates (Angstroms)
 Number     Number       Type             X           Y           Z
 ---------------------------------------------------------------------
      1          8           0       -0.690640   -0.128384   -0.037391
      2          8           0        0.689919    0.127832   -0.037994
      3          1           0       -1.046319    0.676481    0.300887
      4          1           0        1.052083   -0.672066    0.302192
 ---------------------------------------------------------------------
 Rotational constants (GHZ):    328.6581681     28.3893224     26.7353731
 Leave Link  202 at Mon Apr 30 11:53:14 2018, MaxMem=  671088640 cpu:       0.7
 (Enter /shared/apps/gaussian/G09_LINUX_LINDA/g09/l301.exe)
 Standard basis: 6-31G(d) (6D, 7F)
 Ernie: Thresh=  0.10000D-02 Tol=  0.10000D-05 Strict=F.
 There are    34 symmetry adapted basis functions of A   symmetry.
 Integral buffers will be    131072 words long.
 Raffenetti 1 integral format.
 Two-electron integral symmetry is turned on.
    34 basis functions,    64 primitive gaussians,    34 cartesian basis functions
     9 alpha electrons        9 beta electrons
       nuclear repulsion energy        37.8837364191 Hartrees.
 IExCor=    0 DFT=F Ex=HF Corr=None ExCW=0 ScaHFX=  1.000000
 ScaDFX=  1.000000  1.000000  1.000000  1.000000 ScalE2=  1.000000  1.000000
 IRadAn=      0 IRanWt=     -1 IRanGd=            0 ICorTp=0
 NAtoms=    4 NActive=    4 NUniq=    4 SFac= 1.00D+00 NAtFMM=   50 NAOKFM=F Big=F
 Leave Link  301 at Mon Apr 30 11:53:14 2018, MaxMem=  671088640 cpu:       0.9
 (Enter /shared/apps/gaussian/G09_LINUX_LINDA/g09/l302.exe)
 NPDir=0 NMtPBC=     1 NCelOv=     1 NCel=       1 NClECP=     1 NCelD=      1
         NCelK=      1 NCelE2=     1 NClLst=     1 CellRange=     0.0.
 One-electron integrals computed using PRISM.
 NBasis=    34 RedAO= T  NBF=    34
 NBsUse=    34 1.00D-06 NBFU=    34
 Leave Link  302 at Mon Apr 30 11:53:15 2018, MaxMem=  671088640 cpu:       6.5
 (Enter /shared/apps/gaussian/G09_LINUX_LINDA/g09/l303.exe)
 DipDrv:  MaxL=1.
 Leave Link  303 at Mon Apr 30 11:53:15 2018, MaxMem=  671088640 cpu:       1.4
 (Enter /shared/apps/gaussian/G09_LINUX_LINDA/g09/l401.exe)
 Initial guess read from the read-write file.
 B after Tr=     0.000000    0.000000    0.000000
         Rot=    1.000000    0.000000    0.000000    0.000000 Ang=   0.00 deg.
 Guess basis will be translated and rotated to current coordinates.
 Initial guess orbital symmetries:
       Occupied  (A) (A) (A) (A) (A) (A) (A) (A) (A)
       Virtual   (A) (A) (A) (A) (A) (A) (A) (A) (A) (A) (A) (A)
                 (A) (A) (A) (A) (A) (A) (A) (A) (A) (A) (A) (A)
                 (A)
 The electronic state of the initial guess is 1-A.
 Generating alternative initial guess.
 Harris functional with IExCor=  205 diagonalized for initial guess.
 ExpMin= 1.61D-01 ExpMax= 5.48D+03 ExpMxC= 8.25D+02 IAcc=1 IRadAn=         1 AccDes= 0.00D+00
 HarFok:  IExCor=  205 AccDes= 0.00D+00 IRadAn=         1 IDoV= 1
 ScaDFX=  1.000000  1.000000  1.000000  1.000000
 FoFCou: FMM=F IPFlag=           0 FMFlag=      100000 FMFlg1=           0
         NFxFlg=           0 DoJE=T BraDBF=F KetDBF=T FulRan=T
         Omega=  0.000000  0.000000  1.000000  0.000000  0.000000 ICntrl=     500 IOpCl=  0
         NMat0=    1 NMatS0=    1 NMatT0=    0 NMatD0=    1 NMtDS0=    0 NMtDT0=    0
         I1Cent=           4 NGrid=           0.
 Petite list used in FoFCou.
 Harris En= -150.849256205633    
 Leave Link  401 at Mon Apr 30 11:53:17 2018, MaxMem=  671088640 cpu:      22.3
 (Enter /shared/apps/gaussian/G09_LINUX_LINDA/g09/l502.exe)
 Closed shell SCF:
 Requested convergence on RMS density matrix=1.00D-08 within 128 cycles.
 Requested convergence on MAX density matrix=1.00D-06.
 Requested convergence on             energy=1.00D-06.
 No special actions if energy rises.
 Using DIIS extrapolation, IDIIS=  1040.
 Integral symmetry usage will be decided dynamically.
 Keep R1 ints in memory in canonical form, NReq=1019876.
 IEnd=       22552 IEndB=       22552 NGot=   671088640 MDV=   670906581
 LenX=   670906581 LenY=   670904984
 Symmetry not used in FoFDir.
 MinBra= 0 MaxBra= 2 Meth= 1.
 IRaf=       0 NMat=   1 IRICut=       1 DoRegI=T DoRafI=F ISym2E= 0 JSym2E=0.

 Cycle   1  Pass 1  IDiag  1:
 E= -150.762749927006    
 DIIS: error= 3.96D-03 at cycle   1 NSaved=   1.
 NSaved= 1 IEnMin= 1 EnMin= -150.762749927006     IErMin= 1 ErrMin= 3.96D-03
 ErrMax= 3.96D-03 EMaxC= 1.00D-01 BMatC= 1.07D-03 BMatP= 1.07D-03
 IDIUse=3 WtCom= 9.60D-01 WtEn= 3.96D-02
 Coeff-Com:  0.100D+01
 Coeff-En:   0.100D+01
 Coeff:      0.100D+01
 Gap=     0.684 Goal=   None    Shift=    0.000
 GapD=    0.684 DampG=2.000 DampE=1.000 DampFc=2.0000 IDamp=-1.
 RMSDP=9.00D-04 MaxDP=6.82D-03              OVMax= 7.53D-03

 Cycle   2  Pass 1  IDiag  1:
 E= -150.763938265431     Delta-E=       -0.001188338425 Rises=F Damp=F
 DIIS: error= 9.34D-04 at cycle   2 NSaved=   2.
 NSaved= 2 IEnMin= 2 EnMin= -150.763938265431     IErMin= 2 ErrMin= 9.34D-04
 ErrMax= 9.34D-04 EMaxC= 1.00D-01 BMatC= 6.17D-05 BMatP= 1.07D-03
 IDIUse=3 WtCom= 9.91D-01 WtEn= 9.34D-03
 Coeff-Com: -0.192D+00 0.119D+01
 Coeff-En:   0.000D+00 0.100D+01
 Coeff:     -0.190D+00 0.119D+01
 Gap=     0.684 Goal=   None    Shift=    0.000
 RMSDP=3.43D-04 MaxDP=2.12D-03 DE=-1.19D-03 OVMax= 3.94D-03

 Cycle   3  Pass 1  IDiag  1:
 E= -150.764051927561     Delta-E=       -0.000113662130 Rises=F Damp=F
 DIIS: error= 3.49D-04 at cycle   3 NSaved=   3.
 NSaved= 3 IEnMin= 3 EnMin= -150.764051927561     IErMin= 3 ErrMin= 3.49D-04
 ErrMax= 3.49D-04 EMaxC= 1.00D-01 BMatC= 6.22D-06 BMatP= 6.17D-05
 IDIUse=3 WtCom= 9.97D-01 WtEn= 3.49D-03
 Coeff-Com: -0.534D-01 0.863D-01 0.967D+00
 Coeff-En:   0.000D+00 0.000D+00 0.100D+01
 Coeff:     -0.533D-01 0.860D-01 0.967D+00
 Gap=     0.683 Goal=   None    Shift=    0.000
 RMSDP=1.11D-04 MaxDP=7.68D-04 DE=-1.14D-04 OVMax= 1.56D-03

 Cycle   4  Pass 1  IDiag  1:
 E= -150.764063817674     Delta-E=       -0.000011890112 Rises=F Damp=F
 DIIS: error= 1.15D-04 at cycle   4 NSaved=   4.
 NSaved= 4 IEnMin= 4 EnMin= -150.764063817674     IErMin= 4 ErrMin= 1.15D-04
 ErrMax= 1.15D-04 EMaxC= 1.00D-01 BMatC= 9.94D-07 BMatP= 6.22D-06
 IDIUse=3 WtCom= 9.99D-01 WtEn= 1.15D-03
 Coeff-Com:  0.200D-01-0.125D+00-0.402D-01 0.115D+01
 Coeff-En:   0.000D+00 0.000D+00 0.000D+00 0.100D+01
 Coeff:      0.200D-01-0.125D+00-0.401D-01 0.115D+01
 Gap=     0.683 Goal=   None    Shift=    0.000
 RMSDP=7.19D-05 MaxDP=5.13D-04 DE=-1.19D-05 OVMax= 1.03D-03

 Cycle   5  Pass 1  IDiag  1:
 E= -150.764066774701     Delta-E=       -0.000002957027 Rises=F Damp=F
 DIIS: error= 4.95D-05 at cycle   5 NSaved=   5.
 NSaved= 5 IEnMin= 5 EnMin= -150.764066774701     IErMin= 5 ErrMin= 4.95D-05
 ErrMax= 4.95D-05 EMaxC= 1.00D-01 BMatC= 1.37D-07 BMatP= 9.94D-07
 IDIUse=1 WtCom= 1.00D+00 WtEn= 0.00D+00
 Coeff-Com:  0.593D-02-0.528D-02-0.149D+00-0.504D-02 0.115D+01
 Coeff:      0.593D-02-0.528D-02-0.149D+00-0.504D-02 0.115D+01
 Gap=     0.683 Goal=   None    Shift=    0.000
 RMSDP=3.51D-05 MaxDP=2.30D-04 DE=-2.96D-06 OVMax= 5.48D-04

 Cycle   6  Pass 1  IDiag  1:
 E= -150.764067269259     Delta-E=       -0.000000494558 Rises=F Damp=F
 DIIS: error= 2.29D-05 at cycle   6 NSaved=   6.
 NSaved= 6 IEnMin= 6 EnMin= -150.764067269259     IErMin= 6 ErrMin= 2.29D-05
 ErrMax= 2.29D-05 EMaxC= 1.00D-01 BMatC= 1.93D-08 BMatP= 1.37D-07
 IDIUse=1 WtCom= 1.00D+00 WtEn= 0.00D+00
 Coeff-Com: -0.186D-02 0.118D-01-0.461D-02-0.102D+00 0.483D-01 0.105D+01
 Coeff:     -0.186D-02 0.118D-01-0.461D-02-0.102D+00 0.483D-01 0.105D+01
 Gap=     0.683 Goal=   None    Shift=    0.000
 RMSDP=1.07D-05 MaxDP=6.11D-05 DE=-4.95D-07 OVMax= 1.85D-04

 Cycle   7  Pass 1  IDiag  1:
 E= -150.764067331158     Delta-E=       -0.000000061900 Rises=F Damp=F
 DIIS: error= 1.22D-05 at cycle   7 NSaved=   7.
 NSaved= 7 IEnMin= 7 EnMin= -150.764067331158     IErMin= 7 ErrMin= 1.22D-05
 ErrMax= 1.22D-05 EMaxC= 1.00D-01 BMatC= 5.77D-09 BMatP= 1.93D-08
 IDIUse=1 WtCom= 1.00D+00 WtEn= 0.00D+00
 Coeff-Com: -0.211D-02 0.526D-02 0.347D-01-0.297D-01-0.269D+00 0.250D+00
 Coeff-Com:  0.101D+01
 Coeff:     -0.211D-02 0.526D-02 0.347D-01-0.297D-01-0.269D+00 0.250D+00
 Coeff:      0.101D+01
 Gap=     0.683 Goal=   None    Shift=    0.000
 RMSDP=6.09D-06 MaxDP=3.57D-05 DE=-6.19D-08 OVMax= 1.14D-04

 Cycle   8  Pass 1  IDiag  1:
 E= -150.764067350223     Delta-E=       -0.000000019064 Rises=F Damp=F
 DIIS: error= 5.10D-06 at cycle   8 NSaved=   8.
 NSaved= 8 IEnMin= 8 EnMin= -150.764067350223     IErMin= 8 ErrMin= 5.10D-06
 ErrMax= 5.10D-06 EMaxC= 1.00D-01 BMatC= 8.49D-10 BMatP= 5.77D-09
 IDIUse=1 WtCom= 1.00D+00 WtEn= 0.00D+00
 Coeff-Com:  0.159D-02-0.506D-02-0.217D-01 0.375D-01 0.174D+00-0.386D+00
 Coeff-Com: -0.666D+00 0.187D+01
 Coeff:      0.159D-02-0.506D-02-0.217D-01 0.375D-01 0.174D+00-0.386D+00
 Coeff:     -0.666D+00 0.187D+01
 Gap=     0.683 Goal=   None    Shift=    0.000
 RMSDP=3.68D-06 MaxDP=2.59D-05 DE=-1.91D-08 OVMax= 7.27D-05

 Cycle   9  Pass 1  IDiag  1:
 E= -150.764067354578     Delta-E=       -0.000000004356 Rises=F Damp=F
 DIIS: error= 4.56D-07 at cycle   9 NSaved=   9.
 NSaved= 9 IEnMin= 9 EnMin= -150.764067354578     IErMin= 9 ErrMin= 4.56D-07
 ErrMax= 4.56D-07 EMaxC= 1.00D-01 BMatC= 1.17D-11 BMatP= 8.49D-10
 IDIUse=1 WtCom= 1.00D+00 WtEn= 0.00D+00
 Coeff-Com: -0.346D-03 0.125D-02 0.389D-02-0.870D-02-0.332D-01 0.893D-01
 Coeff-Com:  0.136D+00-0.482D+00 0.129D+01
 Coeff:     -0.346D-03 0.125D-02 0.389D-02-0.870D-02-0.332D-01 0.893D-01
 Coeff:      0.136D+00-0.482D+00 0.129D+01
 Gap=     0.683 Goal=   None    Shift=    0.000
 RMSDP=2.79D-07 MaxDP=2.08D-06 DE=-4.36D-09 OVMax= 5.38D-06

 Cycle  10  Pass 1  IDiag  1:
 E= -150.764067354614     Delta-E=       -0.000000000036 Rises=F Damp=F
 DIIS: error= 8.09D-08 at cycle  10 NSaved=  10.
 NSaved=10 IEnMin=10 EnMin= -150.764067354614     IErMin=10 ErrMin= 8.09D-08
 ErrMax= 8.09D-08 EMaxC= 1.00D-01 BMatC= 4.07D-13 BMatP= 1.17D-11
 IDIUse=1 WtCom= 1.00D+00 WtEn= 0.00D+00
 Coeff-Com:  0.281D-04-0.113D-03-0.321D-03 0.816D-03 0.257D-02-0.923D-02
 Coeff-Com: -0.112D-01 0.513D-01-0.271D+00 0.124D+01
 Coeff:      0.281D-04-0.113D-03-0.321D-03 0.816D-03 0.257D-02-0.923D-02
 Coeff:     -0.112D-01 0.513D-01-0.271D+00 0.124D+01
 Gap=     0.683 Goal=   None    Shift=    0.000
 RMSDP=4.17D-08 MaxDP=2.98D-07 DE=-3.57D-11 OVMax= 6.87D-07

 Cycle  11  Pass 1  IDiag  1:
 E= -150.764067354615     Delta-E=       -0.000000000001 Rises=F Damp=F
 DIIS: error= 2.82D-08 at cycle  11 NSaved=  11.
 NSaved=11 IEnMin=11 EnMin= -150.764067354615     IErMin=11 ErrMin= 2.82D-08
 ErrMax= 2.82D-08 EMaxC= 1.00D-01 BMatC= 2.72D-14 BMatP= 4.07D-13
 IDIUse=1 WtCom= 1.00D+00 WtEn= 0.00D+00
 Coeff-Com:  0.165D-04-0.546D-04-0.205D-03 0.425D-03 0.170D-02-0.407D-02
 Coeff-Com: -0.626D-02 0.216D-01-0.347D-01-0.230D+00 0.125D+01
 Coeff:      0.165D-04-0.546D-04-0.205D-03 0.425D-03 0.170D-02-0.407D-02
 Coeff:     -0.626D-02 0.216D-01-0.347D-01-0.230D+00 0.125D+01
 Gap=     0.683 Goal=   None    Shift=    0.000
 RMSDP=1.16D-08 MaxDP=6.58D-08 DE=-1.14D-12 OVMax= 1.30D-07

 Cycle  12  Pass 1  IDiag  1:
 E= -150.764067354615     Delta-E=        0.000000000000 Rises=F Damp=F
 DIIS: error= 4.82D-09 at cycle  12 NSaved=  12.
 NSaved=12 IEnMin=12 EnMin= -150.764067354615     IErMin=12 ErrMin= 4.82D-09
 ErrMax= 4.82D-09 EMaxC= 1.00D-01 BMatC= 8.55D-16 BMatP= 2.72D-14
 IDIUse=1 WtCom= 1.00D+00 WtEn= 0.00D+00
 Coeff-Com: -0.366D-05 0.128D-04 0.424D-04-0.948D-04-0.367D-03 0.947D-03
 Coeff-Com:  0.144D-02-0.546D-02 0.154D-01 0.955D-03-0.257D+00 0.124D+01
 Coeff:     -0.366D-05 0.128D-04 0.424D-04-0.948D-04-0.367D-03 0.947D-03
 Coeff:      0.144D-02-0.546D-02 0.154D-01 0.955D-03-0.257D+00 0.124D+01
 Gap=     0.683 Goal=   None    Shift=    0.000
 RMSDP=1.90D-09 MaxDP=1.13D-08 DE=-2.27D-13 OVMax= 2.37D-08

 SCF Done:  E(RHF) =  -150.764067355     A.U. after   12 cycles
             Convg  =    0.1901D-08             -V/T =  2.0025
 KE= 1.503947142800D+02 PE=-4.337086472531D+02 EE= 9.466612919944D+01
 Leave Link  502 at Mon Apr 30 11:53:22 2018, MaxMem=  671088640 cpu:      41.1
 (Enter /shared/apps/gaussian/G09_LINUX_LINDA/g09/l701.exe)
 Compute integral first derivatives.
 ... and contract with generalized density number  0.
 Leave Link  701 at Mon Apr 30 11:53:22 2018, MaxMem=  671088640 cpu:       7.5
 (Enter /shared/apps/gaussian/G09_LINUX_LINDA/g09/l702.exe)
 L702 exits ... SP integral derivatives will be done elsewhere.
 Leave Link  702 at Mon Apr 30 11:53:22 2018, MaxMem=  671088640 cpu:       0.2
 (Enter /shared/apps/gaussian/G09_LINUX_LINDA/g09/l703.exe)
 Compute integral first derivatives, UseDBF=F ICtDFT=           0.
 Integral derivatives from FoFDir, PRISM(SPDF).
 Calling FoFJK, ICntrl=      2127 FMM=F ISym2X=0 I1Cent= 0 IOpClX= 0 NMat=1 NMatS=1 NMatT=0.
 FoFCou: FMM=F IPFlag=           0 FMFlag=      100000 FMFlg1=         800
         NFxFlg=           0 DoJE=F BraDBF=F KetDBF=F FulRan=T
         Omega=  0.000000  0.000000  1.000000  0.000000  0.000000 ICntrl=    2127 IOpCl=  0
         NMat0=    1 NMatS0=    1 NMatT0=    0 NMatD0=    1 NMtDS0=    0 NMtDT0=    0
         I1Cent=           0 NGrid=           0.
 Symmetry not used in FoFCou.
 Leave Link  703 at Mon Apr 30 11:53:23 2018, MaxMem=  671088640 cpu:       4.9
 (Enter /shared/apps/gaussian/G09_LINUX_LINDA/g09/l716.exe)
 Dipole        = 3.20266418D-03 2.43922475D-03 5.37325782D-01
 ***** Axes restored to original set *****
 -------------------------------------------------------------------
 Center     Atomic                   Forces (Hartrees/Bohr)
 Number     Number              X              Y              Z
 -------------------------------------------------------------------
      1        8          -0.010520740   -0.006668608    0.004101956
      2        8           0.010812949    0.008614118    0.004454160
      3        1           0.002235070    0.006383184   -0.004366702
      4        1          -0.002527278   -0.008328695   -0.004189414
 -------------------------------------------------------------------
 Cartesian Forces:  Max     0.010812949 RMS     0.006714778
 Leave Link  716 at Mon Apr 30 11:53:23 2018, MaxMem=  671088640 cpu:       0.3
 (Enter /shared/apps/gaussian/G09_LINUX_LINDA/g09/l103.exe)

 GradGradGradGradGradGradGradGradGradGradGradGradGradGradGradGradGradGrad
 Berny optimization.
 Using GDIIS optimizer.
 Internal  Forces:  Max     0.008444767 RMS     0.006845605
 Search for a local minimum.
 Step number   3 out of a maximum of   20
 All quantities printed in internal units (Hartrees-Bohrs-Radians)
 Swaping is turned off.
 Update second derivatives using D2CorX and points    1    2    3
 DE= -1.11D-03 DEPred=-1.71D-03 R= 6.53D-01
 SS=  1.41D+00  RLast= 1.36D-01 DXNew= 8.4853D-01 4.0665D-01
 Trust test= 6.53D-01 RLast= 1.36D-01 DXMaxT set to 5.05D-01
 The second derivative matrix:
                          R1        R2        R3        A1        A2
           R1           0.51939
           R2          -0.01061   0.52599
           R3          -0.01484   0.03419   0.52433
           A1           0.08263   0.00380   0.00333   0.24164
           A2           0.08818  -0.00893  -0.01144   0.07123   0.22654
           D1           0.02585  -0.00124  -0.00153   0.00751   0.00686
                          D1
           D1           0.02295
 ITU=  1  1  0
     Eigenvalues ---    0.02154   0.16158   0.25176   0.49080   0.54693
     Eigenvalues ---    0.58821
 DIIS coeff's:      0.75996      0.28355     -0.04351
 Cosine:  0.999 >  0.840
 Length:  0.975
 GDIIS step was calculated using  3 of the last  3 vectors.
 Iteration  1 RMS(Cart)=  0.03402891 RMS(Int)=  0.00095758
 Iteration  2 RMS(Cart)=  0.00088882 RMS(Int)=  0.00000036
 Iteration  3 RMS(Cart)=  0.00000034 RMS(Int)=  0.00000000
 Variable       Old X    -DE/DX   Delta X   Delta X   Delta X     New X
                                  (DIIS)     (GDIIS)  (Total)
    R1        2.65343  -0.00650  -0.01209   0.01028  -0.00181   2.65162
    R2        1.78151   0.00701  -0.00018   0.01180   0.01162   1.79313
    R3        1.77948   0.00831  -0.00012   0.01416   0.01404   1.79352
    A1        1.78781  -0.00664  -0.01815   0.00177  -0.01638   1.77143
    A2        1.79567  -0.00844  -0.01611  -0.01116  -0.02728   1.76840
    D1        2.38568  -0.00228   0.02028  -0.09728  -0.07700   2.30868
         Item               Value     Threshold  Converged?
 Maximum Force            0.008445     0.000002     NO 
 RMS     Force            0.006846     0.000001     NO 
 Maximum Displacement     0.037115     0.000006     NO 
 RMS     Displacement     0.034459     0.000004     NO 
 Predicted change in Energy=-3.710987D-04
 GradGradGradGradGradGradGradGradGradGradGradGradGradGradGradGradGradGrad

 Leave Link  103 at Mon Apr 30 11:53:25 2018, MaxMem=  671088640 cpu:      19.8
 (Enter /shared/apps/gaussian/G09_LINUX_LINDA/g09/l202.exe)
                          Input orientation:                          
 ---------------------------------------------------------------------
 Center     Atomic      Atomic             Coordinates (Angstroms)
 Number     Number       Type             X           Y           Z
 ---------------------------------------------------------------------
      1          8           0        0.560783   -0.410276    0.209399
      2          8           0       -0.562426    0.429639    0.166403
      3          1           0        1.222580    0.138242   -0.192514
      4          1           0       -1.220937   -0.157605   -0.183289
 ---------------------------------------------------------------------
                    Distance matrix (angstroms):
                    1          2          3          4
     1  O    0.000000
     2  O    1.403177   0.000000
     3  H    0.948884   1.843903   0.000000
     4  H    1.841894   0.949092   2.461379   0.000000
 Stoichiometry    H2O2
 Framework group  C1[X(H2O2)]
 Deg. of freedom     6
 Full point group                 C1      NOp   1
 Largest Abelian subgroup         C1      NOp   1
 Largest concise Abelian subgroup C1      NOp   1
                         Standard orientation:                         
 ---------------------------------------------------------------------
 Center     Atomic      Atomic             Coordinates (Angstroms)
 Number     Number       Type             X           Y           Z
 ---------------------------------------------------------------------
      1          8           0        0.690029    0.125936   -0.041935
      2          8           0       -0.690323   -0.126125   -0.041687
      3          1           0        1.028836   -0.676385    0.334724
      4          1           0       -1.026479    0.677892    0.334256
 ---------------------------------------------------------------------
 Rotational constants (GHZ):    319.4142489     28.4657353     26.8830915
 Leave Link  202 at Mon Apr 30 11:53:25 2018, MaxMem=  671088640 cpu:       0.7
 (Enter /shared/apps/gaussian/G09_LINUX_LINDA/g09/l301.exe)
 Standard basis: 6-31G(d) (6D, 7F)
 Ernie: Thresh=  0.10000D-02 Tol=  0.10000D-05 Strict=F.
 There are    34 symmetry adapted basis functions of A   symmetry.
 Integral buffers will be    131072 words long.
 Raffenetti 1 integral format.
 Two-electron integral symmetry is turned on.
    34 basis functions,    64 primitive gaussians,    34 cartesian basis functions
     9 alpha electrons        9 beta electrons
       nuclear repulsion energy        37.8674410159 Hartrees.
 IExCor=    0 DFT=F Ex=HF Corr=None ExCW=0 ScaHFX=  1.000000
 ScaDFX=  1.000000  1.000000  1.000000  1.000000 ScalE2=  1.000000  1.000000
 IRadAn=      0 IRanWt=     -1 IRanGd=            0 ICorTp=0
 NAtoms=    4 NActive=    4 NUniq=    4 SFac= 1.00D+00 NAtFMM=   50 NAOKFM=F Big=F
 Leave Link  301 at Mon Apr 30 11:53:26 2018, MaxMem=  671088640 cpu:       0.9
 (Enter /shared/apps/gaussian/G09_LINUX_LINDA/g09/l302.exe)
 NPDir=0 NMtPBC=     1 NCelOv=     1 NCel=       1 NClECP=     1 NCelD=      1
         NCelK=      1 NCelE2=     1 NClLst=     1 CellRange=     0.0.
 One-electron integrals computed using PRISM.
 NBasis=    34 RedAO= T  NBF=    34
 NBsUse=    34 1.00D-06 NBFU=    34
 Leave Link  302 at Mon Apr 30 11:53:26 2018, MaxMem=  671088640 cpu:       6.6
 (Enter /shared/apps/gaussian/G09_LINUX_LINDA/g09/l303.exe)
 DipDrv:  MaxL=1.
 Leave Link  303 at Mon Apr 30 11:53:27 2018, MaxMem=  671088640 cpu:       1.5
 (Enter /shared/apps/gaussian/G09_LINUX_LINDA/g09/l401.exe)
 Initial guess read from the read-write file.
 B after Tr=     0.000000    0.000000    0.000000
         Rot=    1.000000    0.000000    0.000000    0.000000 Ang=   0.00 deg.
 Guess basis will be translated and rotated to current coordinates.
 Initial guess orbital symmetries:
       Occupied  (A) (A) (A) (A) (A) (A) (A) (A) (A)
       Virtual   (A) (A) (A) (A) (A) (A) (A) (A) (A) (A) (A) (A)
                 (A) (A) (A) (A) (A) (A) (A) (A) (A) (A) (A) (A)
                 (A)
 The electronic state of the initial guess is 1-A.
 Generating alternative initial guess.
 Harris functional with IExCor=  205 diagonalized for initial guess.
 ExpMin= 1.61D-01 ExpMax= 5.48D+03 ExpMxC= 8.25D+02 IAcc=1 IRadAn=         1 AccDes= 0.00D+00
 HarFok:  IExCor=  205 AccDes= 0.00D+00 IRadAn=         1 IDoV= 1
 ScaDFX=  1.000000  1.000000  1.000000  1.000000
 FoFCou: FMM=F IPFlag=           0 FMFlag=      100000 FMFlg1=           0
         NFxFlg=           0 DoJE=T BraDBF=F KetDBF=T FulRan=T
         Omega=  0.000000  0.000000  1.000000  0.000000  0.000000 ICntrl=     500 IOpCl=  0
         NMat0=    1 NMatS0=    1 NMatT0=    0 NMatD0=    1 NMtDS0=    0 NMtDT0=    0
         I1Cent=           4 NGrid=           0.
 Petite list used in FoFCou.
 Harris En= -150.849978704411    
 Leave Link  401 at Mon Apr 30 11:53:29 2018, MaxMem=  671088640 cpu:      22.6
 (Enter /shared/apps/gaussian/G09_LINUX_LINDA/g09/l502.exe)
 Closed shell SCF:
 Requested convergence on RMS density matrix=1.00D-08 within 128 cycles.
 Requested convergence on MAX density matrix=1.00D-06.
 Requested convergence on             energy=1.00D-06.
 No special actions if energy rises.
 Using DIIS extrapolation, IDIIS=  1040.
 Integral symmetry usage will be decided dynamically.
 Keep R1 ints in memory in canonical form, NReq=1019876.
 IEnd=       22552 IEndB=       22552 NGot=   671088640 MDV=   670906581
 LenX=   670906581 LenY=   670904984
 Symmetry not used in FoFDir.
 MinBra= 0 MaxBra= 2 Meth= 1.
 IRaf=       0 NMat=   1 IRICut=       1 DoRegI=T DoRafI=F ISym2E= 0 JSym2E=0.

 Cycle   1  Pass 1  IDiag  1:
 E= -148.935243144326    
 DIIS: error= 1.48D-01 at cycle   1 NSaved=   1.
 NSaved= 1 IEnMin= 1 EnMin= -148.935243144326     IErMin= 1 ErrMin= 1.48D-01
 ErrMax= 1.48D-01 EMaxC= 1.00D-01 BMatC= 9.21D-01 BMatP= 9.21D-01
 IDIUse=3 WtCom= 0.00D+00 WtEn= 1.00D+00
 Coeff-Com:  0.100D+01
 Coeff-En:   0.100D+01
 Coeff:      0.100D+01
 Recover alternate guess density for next cycle.
 RMSDP=4.73D-02 MaxDP=4.24D-01              OVMax= 0.00D+00

 Cycle   2  Pass 1  IDiag  1:
 E= -150.720717818090     Delta-E=       -1.785474673764 Rises=F Damp=F
 DIIS: error= 4.83D-02 at cycle   2 NSaved=   2.
 NSaved= 2 IEnMin= 2 EnMin= -150.720717818090     IErMin= 2 ErrMin= 4.83D-02
 ErrMax= 4.83D-02 EMaxC= 1.00D-01 BMatC= 1.09D-01 BMatP= 9.21D-01
 IDIUse=3 WtCom= 5.17D-01 WtEn= 4.83D-01
 Coeff-Com: -0.719D-03 0.100D+01
 Coeff-En:   0.000D+00 0.100D+01
 Coeff:     -0.372D-03 0.100D+01
 Gap=     0.769 Goal=   None    Shift=    0.000
 RMSDP=5.64D-03 MaxDP=5.52D-02 DE=-1.79D+00 OVMax= 5.68D-02

 Cycle   3  Pass 1  IDiag  1:
 E= -150.758986131565     Delta-E=       -0.038268313475 Rises=F Damp=F
 DIIS: error= 1.33D-02 at cycle   3 NSaved=   3.
 NSaved= 3 IEnMin= 3 EnMin= -150.758986131565     IErMin= 3 ErrMin= 1.33D-02
 ErrMax= 1.33D-02 EMaxC= 1.00D-01 BMatC= 8.64D-03 BMatP= 1.09D-01
 IDIUse=3 WtCom= 8.67D-01 WtEn= 1.33D-01
 Coeff-Com:  0.349D-01 0.777D-01 0.887D+00
 Coeff-En:   0.000D+00 0.000D+00 0.100D+01
 Coeff:      0.302D-01 0.674D-01 0.902D+00
 Gap=     0.689 Goal=   None    Shift=    0.000
 RMSDP=2.15D-03 MaxDP=1.94D-02 DE=-3.83D-02 OVMax= 1.79D-02

 Cycle   4  Pass 1  IDiag  1:
 E= -150.763904959730     Delta-E=       -0.004918828164 Rises=F Damp=F
 DIIS: error= 3.53D-03 at cycle   4 NSaved=   4.
 NSaved= 4 IEnMin= 4 EnMin= -150.763904959730     IErMin= 4 ErrMin= 3.53D-03
 ErrMax= 3.53D-03 EMaxC= 1.00D-01 BMatC= 6.24D-04 BMatP= 8.64D-03
 IDIUse=3 WtCom= 9.65D-01 WtEn= 3.53D-02
 Coeff-Com: -0.649D-02-0.140D-01 0.153D+00 0.867D+00
 Coeff-En:   0.000D+00 0.000D+00 0.000D+00 0.100D+01
 Coeff:     -0.626D-02-0.135D-01 0.148D+00 0.872D+00
 Gap=     0.681 Goal=   None    Shift=    0.000
 RMSDP=5.38D-04 MaxDP=6.11D-03 DE=-4.92D-03 OVMax= 6.95D-03

 Cycle   5  Pass 1  IDiag  1:
 E= -150.764481790895     Delta-E=       -0.000576831166 Rises=F Damp=F
 DIIS: error= 3.64D-04 at cycle   5 NSaved=   5.
 NSaved= 5 IEnMin= 5 EnMin= -150.764481790895     IErMin= 5 ErrMin= 3.64D-04
 ErrMax= 3.64D-04 EMaxC= 1.00D-01 BMatC= 9.53D-06 BMatP= 6.24D-04
 IDIUse=3 WtCom= 9.96D-01 WtEn= 3.64D-03
 Coeff-Com:  0.518D-03 0.126D-02-0.405D-01-0.993D-01 0.114D+01
 Coeff-En:   0.000D+00 0.000D+00 0.000D+00 0.000D+00 0.100D+01
 Coeff:      0.516D-03 0.125D-02-0.404D-01-0.990D-01 0.114D+01
 Gap=     0.683 Goal=   None    Shift=    0.000
 RMSDP=9.74D-05 MaxDP=7.91D-04 DE=-5.77D-04 OVMax= 1.02D-03

 Cycle   6  Pass 1  IDiag  1:
 E= -150.764495448525     Delta-E=       -0.000013657630 Rises=F Damp=F
 DIIS: error= 1.04D-04 at cycle   6 NSaved=   6.
 NSaved= 6 IEnMin= 6 EnMin= -150.764495448525     IErMin= 6 ErrMin= 1.04D-04
 ErrMax= 1.04D-04 EMaxC= 1.00D-01 BMatC= 4.84D-07 BMatP= 9.53D-06
 IDIUse=3 WtCom= 9.99D-01 WtEn= 1.04D-03
 Coeff-Com:  0.147D-03 0.695D-03-0.486D-02-0.338D-01-0.985D-01 0.114D+01
 Coeff-En:   0.000D+00 0.000D+00 0.000D+00 0.000D+00 0.000D+00 0.100D+01
 Coeff:      0.147D-03 0.694D-03-0.485D-02-0.338D-01-0.984D-01 0.114D+01
 Gap=     0.683 Goal=   None    Shift=    0.000
 RMSDP=3.55D-05 MaxDP=2.63D-04 DE=-1.37D-05 OVMax= 4.49D-04

 Cycle   7  Pass 1  IDiag  1:
 E= -150.764496595808     Delta-E=       -0.000001147283 Rises=F Damp=F
 DIIS: error= 2.49D-05 at cycle   7 NSaved=   7.
 NSaved= 7 IEnMin= 7 EnMin= -150.764496595808     IErMin= 7 ErrMin= 2.49D-05
 ErrMax= 2.49D-05 EMaxC= 1.00D-01 BMatC= 2.56D-08 BMatP= 4.84D-07
 IDIUse=1 WtCom= 1.00D+00 WtEn= 0.00D+00
 Coeff-Com: -0.510D-04-0.148D-03 0.215D-02 0.101D-01-0.293D-01-0.247D+00
 Coeff-Com:  0.126D+01
 Coeff:     -0.510D-04-0.148D-03 0.215D-02 0.101D-01-0.293D-01-0.247D+00
 Coeff:      0.126D+01
 Gap=     0.683 Goal=   None    Shift=    0.000
 RMSDP=1.11D-05 MaxDP=8.95D-05 DE=-1.15D-06 OVMax= 1.50D-04

 Cycle   8  Pass 1  IDiag  1:
 E= -150.764496662045     Delta-E=       -0.000000066238 Rises=F Damp=F
 DIIS: error= 4.58D-06 at cycle   8 NSaved=   8.
 NSaved= 8 IEnMin= 8 EnMin= -150.764496662045     IErMin= 8 ErrMin= 4.58D-06
 ErrMax= 4.58D-06 EMaxC= 1.00D-01 BMatC= 2.44D-09 BMatP= 2.56D-08
 IDIUse=1 WtCom= 1.00D+00 WtEn= 0.00D+00
 Coeff-Com: -0.198D-04-0.574D-04 0.765D-03 0.392D-02-0.599D-02-0.974D-01
 Coeff-Com:  0.323D+00 0.776D+00
 Coeff:     -0.198D-04-0.574D-04 0.765D-03 0.392D-02-0.599D-02-0.974D-01
 Coeff:      0.323D+00 0.776D+00
 Gap=     0.683 Goal=   None    Shift=    0.000
 RMSDP=1.61D-06 MaxDP=1.29D-05 DE=-6.62D-08 OVMax= 2.14D-05

 Cycle   9  Pass 1  IDiag  1:
 E= -150.764496664854     Delta-E=       -0.000000002808 Rises=F Damp=F
 DIIS: error= 1.91D-06 at cycle   9 NSaved=   9.
 NSaved= 9 IEnMin= 9 EnMin= -150.764496664854     IErMin= 9 ErrMin= 1.91D-06
 ErrMax= 1.91D-06 EMaxC= 1.00D-01 BMatC= 3.28D-10 BMatP= 2.44D-09
 IDIUse=1 WtCom= 1.00D+00 WtEn= 0.00D+00
 Coeff-Com:  0.470D-05 0.212D-04-0.254D-03-0.124D-02 0.310D-02 0.378D-01
 Coeff-Com: -0.191D+00 0.863D-01 0.106D+01
 Coeff:      0.470D-05 0.212D-04-0.254D-03-0.124D-02 0.310D-02 0.378D-01
 Coeff:     -0.191D+00 0.863D-01 0.106D+01
 Gap=     0.683 Goal=   None    Shift=    0.000
 RMSDP=9.53D-07 MaxDP=5.38D-06 DE=-2.81D-09 OVMax= 1.16D-05

 Cycle  10  Pass 1  IDiag  1:
 E= -150.764496665512     Delta-E=       -0.000000000659 Rises=F Damp=F
 DIIS: error= 6.31D-07 at cycle  10 NSaved=  10.
 NSaved=10 IEnMin=10 EnMin= -150.764496665512     IErMin=10 ErrMin= 6.31D-07
 ErrMax= 6.31D-07 EMaxC= 1.00D-01 BMatC= 2.06D-11 BMatP= 3.28D-10
 IDIUse=1 WtCom= 1.00D+00 WtEn= 0.00D+00
 Coeff-Com: -0.143D-05-0.485D-05 0.444D-04 0.187D-03-0.902D-03-0.548D-02
 Coeff-Com:  0.421D-01-0.896D-01-0.374D+00 0.143D+01
 Coeff:     -0.143D-05-0.485D-05 0.444D-04 0.187D-03-0.902D-03-0.548D-02
 Coeff:      0.421D-01-0.896D-01-0.374D+00 0.143D+01
 Gap=     0.683 Goal=   None    Shift=    0.000
 RMSDP=3.69D-07 MaxDP=2.44D-06 DE=-6.59D-10 OVMax= 5.74D-06

 Cycle  11  Pass 1  IDiag  1:
 E= -150.764496665589     Delta-E=       -0.000000000076 Rises=F Damp=F
 DIIS: error= 2.75D-07 at cycle  11 NSaved=  11.
 NSaved=11 IEnMin=11 EnMin= -150.764496665589     IErMin=11 ErrMin= 2.75D-07
 ErrMax= 2.75D-07 EMaxC= 1.00D-01 BMatC= 1.87D-12 BMatP= 2.06D-11
 IDIUse=1 WtCom= 1.00D+00 WtEn= 0.00D+00
 Coeff-Com:  0.471D-06 0.703D-06-0.125D-05 0.333D-05 0.243D-03-0.448D-03
 Coeff-Com: -0.457D-02 0.330D-01 0.869D-01-0.600D+00 0.148D+01
 Coeff:      0.471D-06 0.703D-06-0.125D-05 0.333D-05 0.243D-03-0.448D-03
 Coeff:     -0.457D-02 0.330D-01 0.869D-01-0.600D+00 0.148D+01
 Gap=     0.683 Goal=   None    Shift=    0.000
 RMSDP=1.20D-07 MaxDP=8.56D-07 DE=-7.64D-11 OVMax= 2.40D-06

 Cycle  12  Pass 1  IDiag  1:
 E= -150.764496665597     Delta-E=       -0.000000000008 Rises=F Damp=F
 DIIS: error= 1.01D-07 at cycle  12 NSaved=  12.
 NSaved=12 IEnMin=12 EnMin= -150.764496665597     IErMin=12 ErrMin= 1.01D-07
 ErrMax= 1.01D-07 EMaxC= 1.00D-01 BMatC= 2.65D-13 BMatP= 1.87D-12
 IDIUse=1 WtCom= 1.00D+00 WtEn= 0.00D+00
 Coeff-Com: -0.172D-06-0.326D-07-0.237D-05-0.592D-05 0.106D-05 0.159D-03
 Coeff-Com: -0.726D-03-0.282D-02 0.253D-03 0.898D-01-0.697D+00 0.161D+01
 Coeff:     -0.172D-06-0.326D-07-0.237D-05-0.592D-05 0.106D-05 0.159D-03
 Coeff:     -0.726D-03-0.282D-02 0.253D-03 0.898D-01-0.697D+00 0.161D+01
 Gap=     0.683 Goal=   None    Shift=    0.000
 RMSDP=6.21D-08 MaxDP=3.98D-07 DE=-8.19D-12 OVMax= 1.21D-06

 Cycle  13  Pass 1  IDiag  1:
[...]
 Depolar (P) --     0.7176                 0.1940                 0.7500
 Depolar (U) --     0.8356                 0.3249                 0.8571
  Atom  AN      X      Y      Z        X      Y      Z        X      Y      Z
     1   8     0.01  -0.05  -0.01    -0.02   0.04   0.02    -0.01   0.03   0.02
     2   8    -0.01   0.05  -0.01     0.02  -0.04   0.02    -0.01   0.03  -0.02
     3   1     0.68   0.17   0.09     0.23  -0.56  -0.37     0.24  -0.55  -0.37
     4   1    -0.68  -0.17   0.09    -0.23   0.56  -0.36     0.24  -0.55   0.37

 -------------------
 - Thermochemistry -
 -------------------
 Temperature   298.150 Kelvin.  Pressure   1.00000 Atm.
 Atom     1 has atomic number  8 and mass  15.99491
 Atom     2 has atomic number  8 and mass  15.99491
 Atom     3 has atomic number  1 and mass   1.00783
 Atom     4 has atomic number  1 and mass   1.00783
 Molecular mass:    34.00548 amu.
 Principal axes and moments of inertia in atomic units:
                           1         2         3
     Eigenvalues --     5.64884  63.57041  65.94375
           X            0.99694  -0.07813   0.00000
           Y            0.07813   0.99694   0.00000
           Z            0.00000   0.00000   1.00000
 This molecule is an asymmetric top.
 Rotational symmetry number  1.
 Rotational temperatures (Kelvin)     15.33303     1.36249     1.31345
 Rotational constants (GHZ):         319.48890    28.38964    27.36789
 Zero-point vibrational energy      76919.6 (Joules/Mol)
                                   18.38423 (Kcal/Mol)
 Warning -- explicit consideration of   1 degrees of freedom as
           vibrations may cause significant error
 Vibrational temperatures:    573.45  1655.59  2148.12  2351.69  5885.49
          (Kelvin)           5888.24
 
 Zero-point correction=                           0.029297 (Hartree/Particle)
 Thermal correction to Energy=                    0.032469
 Thermal correction to Enthalpy=                  0.033413
 Thermal correction to Gibbs Free Energy=         0.007114
 Sum of electronic and zero-point Energies=           -150.735490
 Sum of electronic and thermal Energies=              -150.732318
 Sum of electronic and thermal Enthalpies=            -150.731374
 Sum of electronic and thermal Free Energies=         -150.757673
 
                     E (Thermal)             CV                S
                      KCal/Mol        Cal/Mol-Kelvin    Cal/Mol-Kelvin
 Total                   20.374              7.797             55.351
 Electronic               0.000              0.000              0.000
 Translational            0.889              2.981             36.503
 Rotational               0.889              2.981             17.811
 Vibrational             18.597              1.836              1.037
 Vibration     1          0.765              1.473              0.968
                       Q            Log10(Q)             Ln(Q)
 Total Bot       0.534405D-03         -3.272130         -7.534357
 Total V=0       0.159805D+11         10.203592         23.494638
 Vib (Bot)       0.393597D-13        -13.404948        -30.866034
 Vib (Bot)    1  0.447658D+00         -0.349053         -0.803725
 Vib (V=0)       0.117699D+01          0.070773          0.162960
 Vib (V=0)    1  0.117112D+01          0.068600          0.157958
 Electronic      0.100000D+01          0.000000          0.000000
 Translational   0.779433D+07          6.891779         15.868907
 Rotational      0.174197D+04          3.241040          7.462771
 
                                                    Gaussian input prepared by AS
 E
                                                             IR Spectrum
 
     44                                                                           1   1          1                                   
     00                                                                           6   4          1                      3            
     99                                                                           3   9          5                      9            
     31                                                                           5   3          1                      9            
 
     XX                                                                           X   X          X                      X            
     XX                                                                               X                                 X            
     X                                                                                X                                 X            
     X                                                                                X                                 X            
     X                                                                                X                                 X            
     X                                                                                X                                 X            
     X                                                                                X                                 X            
     X                                                                                X                                 X            
                                                                                      X                                 X            
                                                                                      X                                 X            
                                                                                                                        X            
                                                                                                                        X            
                                                                                                                        X            
                                                                                                                        X            
                                                                                                                        X            
                                                                                                                        X            
                                                                                                                        X            
                                                                                                                        X            
                                                                                                                        X            
                                                                                                                        X            
 
 
                                                    Gaussian input prepared by AS
 E
                                                            Raman Spectrum
 
     44                                                                           1   1          1                                   
     00                                                                           6   4          1                      3            
     99                                                                           3   9          5                      9            
     31                                                                           5   3          1                      9            
 
     XX                                                                           X   X          X                      X            
     XX                                                                                          X                                   
     XX                                                                                          X                                   
     XX                                                                                          X                                   
     XX                                                                                          X                                   
     XX                                                                                          X                                   
     XX                                                                                                                              
     XX                                                                                                                              
      X                                                                                                                              
      X                                                                                                                              
      X                                                                                                                              
      X                                                                                                                              
      X                                                                                                                              
      X                                                                                                                              
      X                                                                                                                              
      X                                                                                                                              
      X                                                                                                                              
      X                                                                                                                              
      X                                                                                                                              
      X                                                                                                                              
 
 ***** Axes restored to original set *****
 -------------------------------------------------------------------
 Center     Atomic                   Forces (Hartrees/Bohr)
 Number     Number              X              Y              Z
 -------------------------------------------------------------------
      1        8          -0.000000006    0.000000040   -0.000000021
      2        8           0.000000019    0.000000011    0.000000031
      3        1          -0.000000021   -0.000000032    0.000000010
      4        1           0.000000008   -0.000000019   -0.000000021
 -------------------------------------------------------------------
 Cartesian Forces:  Max     0.000000040 RMS     0.000000022
 Force constants in Cartesian coordinates: 
                1             2             3             4             5 
      1  0.571282D+00
      2  0.399847D-01  0.367258D+00
      3 -0.182868D+00 -0.214361D+00  0.211098D+00
      4 -0.283216D+00  0.132045D+00  0.174262D-01  0.569711D+00
      5  0.129690D+00 -0.159688D+00 -0.831591D-02  0.570343D-01  0.407880D+00
      6 -0.314971D-01  0.222069D-01 -0.254198D-01  0.179712D+00  0.195128D+00
      7 -0.249278D+00 -0.154030D+00  0.179756D+00 -0.388291D-01 -0.164865D-01
      8 -0.215783D+00 -0.220973D+00  0.203674D+00  0.456414D-01  0.110137D-01
      9  0.211151D+00  0.188063D+00 -0.186138D+00 -0.792878D-02 -0.521023D-02
     10 -0.387878D-01 -0.179994D-01 -0.143148D-01 -0.247665D+00 -0.170238D+00
     11  0.461082D-01  0.134025D-01  0.190035D-01 -0.234721D+00 -0.259205D+00
     12  0.321330D-02  0.409083D-02  0.460166D-03 -0.189210D+00 -0.181602D+00
                6             7             8             9            10 
      6  0.172049D+00
      7  0.158458D-01  0.294122D+00
      8 -0.198492D-01  0.167395D+00  0.212209D+00
      9  0.289016D-02 -0.199250D+00 -0.183545D+00  0.181464D+00
     10 -0.164061D+00 -0.601445D-02  0.274690D-02 -0.397239D-02  0.292468D+00
     11 -0.197486D+00  0.312188D-02 -0.225057D-02  0.692096D-03  0.185490D+00
     12 -0.149519D+00  0.364812D-02 -0.279054D-03  0.178389D-02  0.182348D+00
               11            12 
     11  0.248053D+00
     12  0.177790D+00  0.147275D+00
 Force constants in internal coordinates: 
                1             2             3             4             5 
      1  0.444392D+00
      2 -0.348904D-02  0.600081D+00
      3 -0.348905D-02 -0.696555D-03  0.600081D+00
      4  0.802902D-01 -0.252233D-02  0.107839D-02  0.272231D+00
      5  0.802902D-01  0.107839D-02 -0.252233D-02  0.246508D-01  0.272231D+00
      6 -0.310122D-02  0.173544D-02  0.173544D-02  0.991240D-02  0.991238D-02
                6 
      6  0.955314D-02
 Leave Link  716 at Mon Apr 30 11:55:33 2018, MaxMem=  671088640 cpu:       4.5
 (Enter /shared/apps/gaussian/G09_LINUX_LINDA/g09/l103.exe)

 GradGradGradGradGradGradGradGradGradGradGradGradGradGradGradGradGradGrad
 Berny optimization.
 Red2BG is reusing G-inverse.
 Internal  Forces:  Max     0.000000039 RMS     0.000000027
 Search for a local minimum.
 Step number   1 out of a maximum of    2
 All quantities printed in internal units (Hartrees-Bohrs-Radians)
 Swaping is turned off.
 Second derivative matrix not updated -- analytic derivatives used.
 The second derivative matrix:
                          R1        R2        R3        A1        A2
           R1           0.44439
           R2          -0.00349   0.60008
           R3          -0.00349  -0.00070   0.60008
           A1           0.08029  -0.00252   0.00108   0.27223
           A2           0.08029   0.00108  -0.00252   0.02465   0.27223
           D1          -0.00310   0.00174   0.00174   0.00991   0.00991
                          D1
           D1           0.00955
 ITU=  0
     Eigenvalues ---    0.00867   0.23607   0.24754   0.50580   0.59967
     Eigenvalues ---    0.60081
 Angle between quadratic step and forces=  90.00 degrees.
 Linear search not attempted -- option 19 set.
 Iteration  1 RMS(Cart)=  0.00000089 RMS(Int)=  0.00000000
 Variable       Old X    -DE/DX   Delta X   Delta X   Delta X     New X
                                 (Linear)    (Quad)   (Total)
    R1        2.63892   0.00000   0.00000   0.00000   0.00000   2.63892
    R2        1.79374   0.00000   0.00000   0.00000   0.00000   1.79374
    R3        1.79373   0.00000   0.00000   0.00000   0.00000   1.79373
    A1        1.78160   0.00000   0.00000   0.00000   0.00000   1.78160
    A2        1.78160   0.00000   0.00000   0.00000   0.00000   1.78160
    D1        2.02476   0.00000   0.00000   0.00000   0.00000   2.02476
         Item               Value     Threshold  Converged?
 Maximum Force            0.000000     0.000002     YES
 RMS     Force            0.000000     0.000001     YES
 Maximum Displacement     0.000001     0.000006     YES
 RMS     Displacement     0.000001     0.000004     YES
 Predicted change in Energy=-3.128008D-14
 Optimization completed.
    -- Stationary point found.
                           ----------------------------
                           !   Optimized Parameters   !
                           ! (Angstroms and Degrees)  !
 --------------------------                            --------------------------
 ! Name  Definition              Value          Derivative Info.                !
 --------------------------------------------------------------------------------
 ! R1    R(1,2)                  1.3965         -DE/DX =    0.0                 !
 ! R2    R(1,3)                  0.9492         -DE/DX =    0.0                 !
 ! R3    R(2,4)                  0.9492         -DE/DX =    0.0                 !
 ! A1    A(2,1,3)              102.0783         -DE/DX =    0.0                 !
 ! A2    A(1,2,4)              102.0783         -DE/DX =    0.0                 !
 ! D1    D(3,1,2,4)            116.0101         -DE/DX =    0.0                 !
 --------------------------------------------------------------------------------
 GradGradGradGradGradGradGradGradGradGradGradGradGradGradGradGradGradGrad

 Leave Link  103 at Mon Apr 30 11:55:34 2018, MaxMem=  671088640 cpu:      10.6
 (Enter /shared/apps/gaussian/G09_LINUX_LINDA/g09/l9999.exe)

 Test job not archived.
 1\1\GINC-COMPUTE-3-045\Freq\RHF\6-31G(d)\H2O2\ROOT\30-Apr-2018\0\\#P G
 eom=AllCheck Guess=TCheck SCRF=Check Test GenChk RHF/6-31G(d) Freq\\Ga
 ussian input prepared by ASE\\0,1\O,0.571512451,-0.3876558338,0.266621
 2547\O,-0.5725773886,0.4119615384,0.2245732185\H,1.1866715483,0.118501
 6594,-0.2494907058\H,-1.1856066107,-0.1428073641,-0.2417037674\\Versio
 n=EM64L-G09RevB.01\State=1-A\HF=-150.7647869\RMSD=1.503e-09\RMSF=2.224
 e-08\ZeroPoint=0.0292971\Thermal=0.0324687\Dipole=0.0016623,-0.0379398
 ,-0.7667251\DipoleDeriv=-0.2842404,-0.0142744,-0.0886639,-0.0188757,-0
 .268011,-0.0955142,0.038389,-0.1728315,-0.3324291,-0.2844661,-0.006169
 3,0.0899402,-0.0229568,-0.242282,0.0864909,-0.0360542,0.1638547,-0.357
 9324,0.2841962,0.0118918,0.0364944,0.0224943,0.2628329,0.0825999,0.034
 1622,0.0813617,0.3376514,0.2845104,0.0085519,-0.0377707,0.0193381,0.24
 74601,-0.0735766,-0.0364969,-0.0723849,0.3527101\Polar=13.9953445,-1.8
 084378,7.9717456,0.1070892,-0.1075886,5.8822927\PolarDeriv=6.3045802,-
 5.6993208,1.6302368,2.1449931,0.4845438,-0.3850641,-6.39071,3.5786203,
 -5.8979767,0.8088467,1.2959835,-0.5762648,2.3760802,0.5144671,0.446388
 9,0.672104,-2.4323491,2.2130618,-6.3294505,5.876565,-1.5156257,1.54654
 38,0.6879353,0.2763671,6.5847104,-3.4232182,6.1621073,1.1077545,0.9824
 158,0.5507982,1.7130461,0.8021368,0.3284186,-0.8239903,2.4783654,1.666
 6866,4.5440625,1.513492,0.4273108,-1.9213025,-0.5800185,0.6389741,2.20
 84011,1.706847,1.4937559,-0.9327194,-1.1429252,0.4592555,-2.158443,-0.
 6354928,-0.365483,2.2947719,0.9987122,-2.0523951,-4.5191923,-1.6907362
 ,-0.5419219,-1.7702343,-0.5924606,-0.5302771,-2.4024015,-1.8622492,-1.
 7578865,-0.9838818,-1.1354741,-0.4337888,-1.9306833,-0.6811111,-0.4093
 245,-2.1428857,-1.0447285,-1.8273533\HyperPolar=0.0932049,-0.6762141,-
 0.7418821,-0.5584029,-14.3312386,-7.5617535,-3.7528015,0.6985517,0.096
 3373,-4.9194381\PG=C01 [X(H2O2)]\NImag=0\\0.57128242,0.03998475,0.3672
 5843,-0.18286771,-0.21436113,0.21109776,-0.28321611,0.13204486,0.01742
 620,0.56971053,0.12969015,-0.15968830,-0.00831591,0.05703433,0.4078795
 2,-0.03149707,0.02220690,-0.02541983,0.17971219,0.19512787,0.17204873,
 -0.24927847,-0.15403022,0.17975634,-0.03882911,-0.01648651,0.01584585,
 0.29412203,-0.21578314,-0.22097261,0.20367353,0.04564139,0.01101373,-0
 .01984921,0.16739484,0.21220944,0.21115149,0.18806340,-0.18613810,-0.0
 0792878,-0.00521023,0.00289016,-0.19925031,-0.18354527,0.18146405,-0.0
 3878783,-0.01799939,-0.01431483,-0.24766531,-0.17023797,-0.16406097,-0
 .00601445,0.00274690,-0.00397239,0.29246760,0.04610824,0.01340248,0.01
 900351,-0.23472058,-0.25920495,-0.19748556,0.00312188,-0.00225057,0.00
 069210,0.18549046,0.24805304,0.00321330,0.00409083,0.00046017,-0.18920
 961,-0.18160173,-0.14951906,0.00364812,-0.00027905,0.00178389,0.182348
 19,0.17778996,0.14727500\\0.,-0.00000004,0.00000002,-0.00000002,-0.000
 00001,-0.00000003,0.00000002,0.00000003,-0.00000001,0.,0.00000002,0.00
 000002\\\@


 TIME IS IN FACT THE HERO OF THE PLOT. THE TIME
 WITH WHICH WE HAVE TO DEAL IS OF THE ORDER OF TWO
 BILLION YEARS...GIVEN SO MUCH TIME, THE "IMPOSSIBLE"
 BECOMES POSSIBLE, THE POSSIBLE PROBABLE, THE PROBABLE
 VIRTUALLY CERTAIN.  ONE HAS ONLY TO WAIT, TIME
 ITSELF PERFORMS THE MIRACLES.
 "ORIGIN OF LIFE" LECTURES, GEORGE WALD, 1954
 Job cpu time:  0 days  0 hours  3 minutes 24.1 seconds.
 File lengths (MBytes):  RWF=     42 Int=      0 D2E=      0 Chk=      1 Scr=      1
 Normal termination of Gaussian 09 at Mon Apr 30 11:55:34 2018.
