 Entering Gaussian System, Link 0=g09
 Initial command:
 /shared/apps/gaussian/G09_LINUX_LINDA/g09/l1.exe /home/harms.n/Code/AutoTST/ipython_notebooks/Gau-24743.inp -scrdir=/home/harms.n/Code/AutoTST/ipython_notebooks/
 Entering Link 1 = /shared/apps/gaussian/G09_LINUX_LINDA/g09/l1.exe PID=     24744.
  
 Copyright (c) 1988,1990,1992,1993,1995,1998,2003,2009,2010,
            Gaussian, Inc.  All Rights Reserved.
  
 This is part of the Gaussian(R) 09 program.  It is based on
 the Gaussian(R) 03 system (copyright 2003, Gaussian, Inc.),
 the Gaussian(R) 98 system (copyright 1998, Gaussian, Inc.),
 the Gaussian(R) 94 system (copyright 1995, Gaussian, Inc.),
 the Gaussian 92(TM) system (copyright 1992, Gaussian, Inc.),
 the Gaussian 90(TM) system (copyright 1990, Gaussian, Inc.),
 the Gaussian 88(TM) system (copyright 1988, Gaussian, Inc.),
 the Gaussian 86(TM) system (copyright 1986, Carnegie Mellon
 University), and the Gaussian 82(TM) system (copyright 1983,
 Carnegie Mellon University). Gaussian is a federally registered
 trademark of Gaussian, Inc.
  
 This software contains proprietary and confidential information,
 including trade secrets, belonging to Gaussian, Inc.
  
 This software is provided under written license and may be
 used, copied, transmitted, or stored only in accord with that
 written license.
  
 The following legend is applicable only to US Government
 contracts under FAR:
  
                    RESTRICTED RIGHTS LEGEND
  
 Use, reproduction and disclosure by the US Government is
 subject to restrictions as set forth in subparagraphs (a)
 and (c) of the Commercial Computer Software - Restricted
 Rights clause in FAR 52.227-19.
  
 Gaussian, Inc.
 340 Quinnipiac St., Bldg. 40, Wallingford CT 06492
  
  
 ---------------------------------------------------------------
 Warning -- This program may not be used in any manner that
 competes with the business of Gaussian, Inc. or will provide
 assistance to any competitor of Gaussian, Inc.  The licensee
 of this program is prohibited from giving any competitor of
 Gaussian, Inc. access to this program.  By using this program,
 the user acknowledges that Gaussian, Inc. is engaged in the
 business of creating and licensing software in the field of
 computational chemistry and represents and warrants to the
 licensee that it is not a competitor of Gaussian, Inc. and that
 it will not use this program in any manner prohibited above.
 ---------------------------------------------------------------
  

 Cite this work as:
 Gaussian 09, Revision B.01,
 M. J. Frisch, G. W. Trucks, H. B. Schlegel, G. E. Scuseria, 
 M. A. Robb, J. R. Cheeseman, G. Scalmani, V. Barone, B. Mennucci, 
 G. A. Petersson, H. Nakatsuji, M. Caricato, X. Li, H. P. Hratchian, 
 A. F. Izmaylov, J. Bloino, G. Zheng, J. L. Sonnenberg, M. Hada, 
 M. Ehara, K. Toyota, R. Fukuda, J. Hasegawa, M. Ishida, T. Nakajima, 
 Y. Honda, O. Kitao, H. Nakai, T. Vreven, J. A. Montgomery, Jr., 
 J. E. Peralta, F. Ogliaro, M. Bearpark, J. J. Heyd, E. Brothers, 
 K. N. Kudin, V. N. Staroverov, T. Keith, R. Kobayashi, J. Normand, 
 K. Raghavachari, A. Rendell, J. C. Burant, S. S. Iyengar, J. Tomasi, 
 M. Cossi, N. Rega, J. M. Millam, M. Klene, J. E. Knox, J. B. Cross, 
 V. Bakken, C. Adamo, J. Jaramillo, R. Gomperts, R. E. Stratmann, 
 O. Yazyev, A. J. Austin, R. Cammi, C. Pomelli, J. W. Ochterski, 
 R. L. Martin, K. Morokuma, V. G. Zakrzewski, G. A. Voth, 
 P. Salvador, J. J. Dannenberg, S. Dapprich, A. D. Daniels, 
 O. Farkas, J. B. Foresman, J. V. Ortiz, J. Cioslowski, 
 and D. J. Fox, Gaussian, Inc., Wallingford CT, 2010.
 
 ******************************************
 Gaussian 09:  EM64L-G09RevB.01 12-Aug-2010
                30-Apr-2018 
 ******************************************
 %nprocshared=20
 Will use up to   20 processors via shared memory.
 %mem=5GB
 ---------------------------------------------------
 #p hf/6-31g* opt=(verytight,gdiis) freq IOP(2/16=3)
 ---------------------------------------------------

 Warning!  Use of Opt=GDIIS is deprecated since it is seldom a good choice.

 1/7=1,18=20,19=11,38=1/1,3;
 2/9=110,12=2,16=3,17=6,18=5,40=1/2;
 3/5=1,6=6,7=1,11=9,16=1,25=1,30=1,71=1/1,2,3;
 4//1;
 5/5=2,38=5/2;
 6/7=2,8=2,9=2,10=2,28=1/1;
 7//1,2,3,16;
 1/7=1,18=20,19=11/3(2);
 2/9=110,16=3/2;
 99//99;
 2/9=110,16=3/2;
 3/5=1,6=6,7=1,11=9,16=1,25=1,30=1,71=1/1,2,3;
 4/5=5,16=3/1;
 5/5=2,38=5/2;
 7//1,2,3,16;
 1/7=1,18=20,19=11/3(-5);
 2/9=110,16=3/2;
 6/7=2,8=2,9=2,10=2,19=2,28=1/1;
 99/9=1/99;
 Leave Link    1 at Mon Apr 30 11:24:16 2018, MaxMem=  671088640 cpu:       1.2
 (Enter /shared/apps/gaussian/G09_LINUX_LINDA/g09/l101.exe)
 ------------------------------
 Gaussian input prepared by ASE
 ------------------------------
 Symbolic Z-matrix:
 Charge =  0 Multiplicity = 1
 C                     0.8685   -0.6163   -0.2345 
 C                    -0.388    -0.187    -0.1111 
 C                     2.0111    0.2639    0.0764 
 C                    -1.55888  -1.06152  -0.45355 
 C                    -0.74779   1.1779    0.33782 
 H                     1.0295   -1.6924   -0.124 
 H                     1.8642    0.7167    1.0893 
 H                     2.199     1.037    -0.6938 
 H                     2.9536   -0.3148    0.1596 
 H                    -2.39654  -0.90985   0.26347 
 H                    -1.19363  -2.10162  -0.36419 
 H                    -1.9499   -0.87129  -1.46396 
 H                    -1.2311    1.76957  -0.47324 
 H                     0.07261   1.74362   0.78898 
 H                    -1.53546   1.06309   1.11512 
 
 NAtoms=     15 NQM=     15 NQMF=      0 NMic=      0 NMicF=      0 NTot=     15.
                    Isotopes and Nuclear Properties:
 (Nuclear quadrupole moments (NQMom) in fm**2, nuclear magnetic moments (NMagM)
  in nuclear magnetons)

  Atom         1           2           3           4           5           6           7           8           9          10
 IAtWgt=          12          12          12          12          12           1           1           1           1           1
 AtmWgt=  12.0000000  12.0000000  12.0000000  12.0000000  12.0000000   1.0078250   1.0078250   1.0078250   1.0078250   1.0078250
 NucSpn=           0           0           0           0           0           1           1           1           1           1
 AtZEff=   0.0000000   0.0000000   0.0000000   0.0000000   0.0000000   0.0000000   0.0000000   0.0000000   0.0000000   0.0000000
 NQMom=    0.0000000   0.0000000   0.0000000   0.0000000   0.0000000   0.0000000   0.0000000   0.0000000   0.0000000   0.0000000
 NMagM=    0.0000000   0.0000000   0.0000000   0.0000000   0.0000000   2.7928460   2.7928460   2.7928460   2.7928460   2.7928460

  Atom        11          12          13          14          15
 IAtWgt=           1           1           1           1           1
 AtmWgt=   1.0078250   1.0078250   1.0078250   1.0078250   1.0078250
 NucSpn=           1           1           1           1           1
 AtZEff=   0.0000000   0.0000000   0.0000000   0.0000000   0.0000000
 NQMom=    0.0000000   0.0000000   0.0000000   0.0000000   0.0000000
 NMagM=    2.7928460   2.7928460   2.7928460   2.7928460   2.7928460
 Leave Link  101 at Mon Apr 30 11:24:17 2018, MaxMem=  671088640 cpu:       1.2
 (Enter /shared/apps/gaussian/G09_LINUX_LINDA/g09/l103.exe)

 GradGradGradGradGradGradGradGradGradGradGradGradGradGradGradGradGradGrad
 Berny optimization.
 Initialization pass.
                           ----------------------------
                           !    Initial Parameters    !
                           ! (Angstroms and Degrees)  !
 --------------------------                            --------------------------
 ! Name  Definition              Value          Derivative Info.                !
 --------------------------------------------------------------------------------
 ! R1    R(1,2)                  1.3335         estimate D2E/DX2                !
 ! R2    R(1,3)                  1.4754         estimate D2E/DX2                !
 ! R3    R(1,6)                  1.0937         estimate D2E/DX2                !
 ! R4    R(2,4)                  1.501          estimate D2E/DX2                !
 ! R5    R(2,5)                  1.4812         estimate D2E/DX2                !
 ! R6    R(3,7)                  1.1192         estimate D2E/DX2                !
 ! R7    R(3,8)                  1.1073         estimate D2E/DX2                !
 ! R8    R(3,9)                  1.1091         estimate D2E/DX2                !
 ! R9    R(4,10)                 1.113          estimate D2E/DX2                !
 ! R10   R(4,11)                 1.106          estimate D2E/DX2                !
 ! R11   R(4,12)                 1.1            estimate D2E/DX2                !
 ! R12   R(5,13)                 1.1142         estimate D2E/DX2                !
 ! R13   R(5,14)                 1.0939         estimate D2E/DX2                !
 ! R14   R(5,15)                 1.1126         estimate D2E/DX2                !
 ! A1    A(2,1,3)              121.2065         estimate D2E/DX2                !
 ! A2    A(2,1,6)              116.4944         estimate D2E/DX2                !
 ! A3    A(3,1,6)              116.852          estimate D2E/DX2                !
 ! A4    A(1,2,4)              121.7576         estimate D2E/DX2                !
 ! A5    A(1,2,5)              123.6125         estimate D2E/DX2                !
 ! A6    A(4,2,5)              114.6165         estimate D2E/DX2                !
 ! A7    A(1,3,7)              109.2941         estimate D2E/DX2                !
 ! A8    A(1,3,8)              113.6622         estimate D2E/DX2                !
 ! A9    A(1,3,9)              111.2609         estimate D2E/DX2                !
 ! A10   A(7,3,8)              111.6724         estimate D2E/DX2                !
 ! A11   A(7,3,9)              104.7585         estimate D2E/DX2                !
 ! A12   A(8,3,9)              105.7988         estimate D2E/DX2                !
 ! A13   A(2,4,10)             111.144          estimate D2E/DX2                !
 ! A14   A(2,4,11)             105.7753         estimate D2E/DX2                !
 ! A15   A(2,4,12)             112.7123         estimate D2E/DX2                !
 ! A16   A(10,4,11)            108.9445         estimate D2E/DX2                !
 ! A17   A(10,4,12)            107.4961         estimate D2E/DX2                !
 ! A18   A(11,4,12)            110.7471         estimate D2E/DX2                !
 ! A19   A(2,5,13)             111.9669         estimate D2E/DX2                !
 ! A20   A(2,5,14)             114.7953         estimate D2E/DX2                !
 ! A21   A(2,5,15)             106.7763         estimate D2E/DX2                !
 ! A22   A(13,5,14)            110.5426         estimate D2E/DX2                !
 ! A23   A(13,5,15)            104.8489         estimate D2E/DX2                !
 ! A24   A(14,5,15)            107.2282         estimate D2E/DX2                !
 ! D1    D(3,1,2,4)            178.5943         estimate D2E/DX2                !
 ! D2    D(3,1,2,5)              0.0            estimate D2E/DX2                !
 ! D3    D(6,1,2,4)            -28.2767         estimate D2E/DX2                !
 ! D4    D(6,1,2,5)            153.1291         estimate D2E/DX2                !
 ! D5    D(2,1,3,7)             50.9237         estimate D2E/DX2                !
 ! D6    D(2,1,3,8)            -74.5682         estimate D2E/DX2                !
 ! D7    D(2,1,3,9)            166.1271         estimate D2E/DX2                !
 ! D8    D(6,1,3,7)           -102.1141         estimate D2E/DX2                !
 ! D9    D(6,1,3,8)            132.394          estimate D2E/DX2                !
 ! D10   D(6,1,3,9)             13.0892         estimate D2E/DX2                !
 ! D11   D(1,2,4,10)           141.7471         estimate D2E/DX2                !
 ! D12   D(1,2,4,11)            23.6499         estimate D2E/DX2                !
 ! D13   D(1,2,4,12)           -97.5013         estimate D2E/DX2                !
 ! D14   D(5,2,4,10)           -39.5406         estimate D2E/DX2                !
 ! D15   D(5,2,4,11)          -157.6378         estimate D2E/DX2                !
 ! D16   D(5,2,4,12)            81.211          estimate D2E/DX2                !
 ! D17   D(1,2,5,13)           113.2777         estimate D2E/DX2                !
 ! D18   D(1,2,5,14)           -13.817          estimate D2E/DX2                !
 ! D19   D(1,2,5,15)          -132.5041         estimate D2E/DX2                !
 ! D20   D(4,2,5,13)           -65.4076         estimate D2E/DX2                !
 ! D21   D(4,2,5,14)           167.4978         estimate D2E/DX2                !
 ! D22   D(4,2,5,15)            48.8107         estimate D2E/DX2                !
 --------------------------------------------------------------------------------
 Trust Radius=3.00D-01 FncErr=1.00D-07 GrdErr=1.00D-07
 Number of steps in this run=     70 maximum allowed number of steps=    100.
 GradGradGradGradGradGradGradGradGradGradGradGradGradGradGradGradGradGrad

 Leave Link  103 at Mon Apr 30 11:24:17 2018, MaxMem=  671088640 cpu:       0.2
 (Enter /shared/apps/gaussian/G09_LINUX_LINDA/g09/l202.exe)
                          Input orientation:                          
 ---------------------------------------------------------------------
 Center     Atomic      Atomic             Coordinates (Angstroms)
 Number     Number       Type             X           Y           Z
 ---------------------------------------------------------------------
      1          6           0        0.868500   -0.616300   -0.234500
      2          6           0       -0.388000   -0.187000   -0.111100
      3          6           0        2.011100    0.263900    0.076400
      4          6           0       -1.558877   -1.061518   -0.453552
      5          6           0       -0.747794    1.177896    0.337820
      6          1           0        1.029500   -1.692400   -0.124000
      7          1           0        1.864200    0.716700    1.089300
      8          1           0        2.199000    1.037000   -0.693800
      9          1           0        2.953600   -0.314800    0.159600
     10          1           0       -2.396545   -0.909846    0.263467
     11          1           0       -1.193627   -2.101615   -0.364191
     12          1           0       -1.949900   -0.871291   -1.463959
     13          1           0       -1.231100    1.769566   -0.473245
     14          1           0        0.072611    1.743624    0.788981
     15          1           0       -1.535457    1.063092    1.115118
 ---------------------------------------------------------------------
                    Distance matrix (angstroms):
                    1          2          3          4          5
     1  C    0.000000
     2  C    1.333536   0.000000
     3  C    1.475448   2.448295   0.000000
     4  C    2.477572   1.501002   3.844778   0.000000
     5  C    2.481752   1.481190   2.918086   2.509801   0.000000
     6  H    1.093674   2.067777   2.197910   2.684458   3.407441
     7  H    2.126206   2.707404   1.119184   4.154504   2.756798
     8  H    2.171310   2.920665   1.107338   4.310816   3.125329
     9  H    2.143329   3.354982   1.109109   4.614758   3.995024
    10  H    3.315819   2.167270   4.565085   1.113017   2.661311
    11  H    2.544670   2.092568   4.007500   1.105982   3.383309
    12  H    3.085445   2.176698   4.398964   1.100003   2.981717
    13  H    3.187111   2.161046   3.616767   2.850063   1.114219
    14  H    2.692618   2.179362   2.540687   3.474833   1.093919
    15  H    3.228132   2.093561   3.780967   2.641068   1.112558
                    6          7          8          9         10
     6  H    0.000000
     7  H    2.823576   0.000000
     8  H    3.023578   1.842316   0.000000
     9  H    2.383353   1.764972   1.767788   0.000000
    10  H    3.535577   4.634824   5.081889   5.384135   0.000000
    11  H    2.273201   4.405206   4.633515   4.546048   1.805902
    12  H    3.368462   4.856769   4.631209   5.195184   1.784650
    13  H    4.149397   3.623666   3.514383   4.717710   3.013346
    14  H    3.681770   2.086757   2.686910   3.596293   3.662485
    15  H    3.963225   3.417356   4.149582   4.791997   2.315009
                   11         12         13         14         15
    11  H    0.000000
    12  H    1.815251   0.000000
    13  H    3.872898   2.910724   0.000000
    14  H    4.209398   4.000509   1.814814   0.000000
    15  H    3.510068   3.250421   1.764832   1.776337   0.000000
 Stoichiometry    C5H10
 Framework group  C1[X(C5H10)]
 Deg. of freedom    39
 Full point group                 C1      NOp   1
 Largest Abelian subgroup         C1      NOp   1
 Largest concise Abelian subgroup C1      NOp   1
                         Standard orientation:                         
 ---------------------------------------------------------------------
 Center     Atomic      Atomic             Coordinates (Angstroms)
 Number     Number       Type             X           Y           Z
 ---------------------------------------------------------------------
      1          6           0       -0.693408   -0.764797    0.030217
      2          6           0        0.433582   -0.052360    0.004808
      3          6           0       -2.013926   -0.106651    0.034903
      4          6           0        1.783515   -0.708104    0.031048
      5          6           0        0.467262    1.428231   -0.020474
      6          1           0       -0.644365   -1.770823   -0.395962
      7          1           0       -2.057751    0.640364   -0.797336
      8          1           0       -2.279683    0.349517    1.008290
      9          1           0       -2.824294   -0.829365   -0.191173
     10          1           0        2.501772   -0.174971   -0.631284
     11          1           0        1.628181   -1.731700   -0.357948
     12          1           0        2.222201   -0.736840    1.039381
     13          1           0        0.896278    1.851441    0.916714
     14          1           0       -0.489152    1.904945   -0.254299
     15          1           0        1.184664    1.719523   -0.819392
 ---------------------------------------------------------------------
 Rotational constants (GHZ):      8.3061274      3.6893707      2.6936231
 Leave Link  202 at Mon Apr 30 11:24:17 2018, MaxMem=  671088640 cpu:       0.7
 (Enter /shared/apps/gaussian/G09_LINUX_LINDA/g09/l301.exe)
 Standard basis: 6-31G(d) (6D, 7F)
 Ernie: Thresh=  0.10000D-02 Tol=  0.10000D-05 Strict=F.
 There are    95 symmetry adapted basis functions of A   symmetry.
 Integral buffers will be    131072 words long.
 Raffenetti 1 integral format.
 Two-electron integral symmetry is turned on.
    95 basis functions,   180 primitive gaussians,    95 cartesian basis functions
    20 alpha electrons       20 beta electrons
       nuclear repulsion energy       176.4414450682 Hartrees.
 IExCor=    0 DFT=F Ex=HF Corr=None ExCW=0 ScaHFX=  1.000000
 ScaDFX=  1.000000  1.000000  1.000000  1.000000 ScalE2=  1.000000  1.000000
 IRadAn=      0 IRanWt=     -1 IRanGd=            0 ICorTp=0
 NAtoms=   15 NActive=   15 NUniq=   15 SFac= 1.00D+00 NAtFMM=   50 NAOKFM=F Big=F
 Leave Link  301 at Mon Apr 30 11:24:17 2018, MaxMem=  671088640 cpu:       1.0
 (Enter /shared/apps/gaussian/G09_LINUX_LINDA/g09/l302.exe)
 NPDir=0 NMtPBC=     1 NCelOv=     1 NCel=       1 NClECP=     1 NCelD=      1
         NCelK=      1 NCelE2=     1 NClLst=     1 CellRange=     0.0.
 One-electron integrals computed using PRISM.
 NBasis=    95 RedAO= T  NBF=    95
 NBsUse=    95 1.00D-06 NBFU=    95
 Leave Link  302 at Mon Apr 30 11:24:18 2018, MaxMem=  671088640 cpu:       7.1
 (Enter /shared/apps/gaussian/G09_LINUX_LINDA/g09/l303.exe)
 DipDrv:  MaxL=1.
 Leave Link  303 at Mon Apr 30 11:24:18 2018, MaxMem=  671088640 cpu:       1.5
 (Enter /shared/apps/gaussian/G09_LINUX_LINDA/g09/l401.exe)
 Harris functional with IExCor=  205 diagonalized for initial guess.
 ExpMin= 1.61D-01 ExpMax= 3.05D+03 ExpMxC= 4.57D+02 IAcc=1 IRadAn=         1 AccDes= 0.00D+00
 HarFok:  IExCor=  205 AccDes= 0.00D+00 IRadAn=         1 IDoV= 1
 ScaDFX=  1.000000  1.000000  1.000000  1.000000
 FoFCou: FMM=F IPFlag=           0 FMFlag=      100000 FMFlg1=           0
         NFxFlg=           0 DoJE=T BraDBF=F KetDBF=T FulRan=T
         Omega=  0.000000  0.000000  1.000000  0.000000  0.000000 ICntrl=     500 IOpCl=  0
         NMat0=    1 NMatS0=    1 NMatT0=    0 NMatD0=    1 NMtDS0=    0 NMtDT0=    0
         I1Cent=           4 NGrid=           0.
 Petite list used in FoFCou.
 Harris En= -195.632312193713    
 Initial guess orbital symmetries:
       Occupied  (A) (A) (A) (A) (A) (A) (A) (A) (A) (A) (A) (A)
                 (A) (A) (A) (A) (A) (A) (A) (A)
       Virtual   (A) (A) (A) (A) (A) (A) (A) (A) (A) (A) (A) (A)
                 (A) (A) (A) (A) (A) (A) (A) (A) (A) (A) (A) (A)
                 (A) (A) (A) (A) (A) (A) (A) (A) (A) (A) (A) (A)
                 (A) (A) (A) (A) (A) (A) (A) (A) (A) (A) (A) (A)
                 (A) (A) (A) (A) (A) (A) (A) (A) (A) (A) (A) (A)
                 (A) (A) (A) (A) (A) (A) (A) (A) (A) (A) (A) (A)
                 (A) (A) (A)
 The electronic state of the initial guess is 1-A.
 Leave Link  401 at Mon Apr 30 11:24:20 2018, MaxMem=  671088640 cpu:      15.8
 (Enter /shared/apps/gaussian/G09_LINUX_LINDA/g09/l502.exe)
 Closed shell SCF:
 Requested convergence on RMS density matrix=1.00D-08 within 128 cycles.
 Requested convergence on MAX density matrix=1.00D-06.
 Requested convergence on             energy=1.00D-06.
 No special actions if energy rises.
 Using DIIS extrapolation, IDIIS=  1040.
 Integral symmetry usage will be decided dynamically.
 Keep R1 ints in memory in canonical form, NReq=11266950.
 IEnd=       47856 IEndB=       47856 NGot=   671088640 MDV=   660667437
 LenX=   660667437 LenY=   660657971
 Symmetry not used in FoFDir.
 MinBra= 0 MaxBra= 2 Meth= 1.
 IRaf=       0 NMat=   1 IRICut=       1 DoRegI=T DoRafI=F ISym2E= 0 JSym2E=0.

 Cycle   1  Pass 1  IDiag  1:
 E= -194.787135397453    
 DIIS: error= 5.36D-02 at cycle   1 NSaved=   1.
 NSaved= 1 IEnMin= 1 EnMin= -194.787135397453     IErMin= 1 ErrMin= 5.36D-02
 ErrMax= 5.36D-02 EMaxC= 1.00D-01 BMatC= 4.16D-01 BMatP= 4.16D-01
 IDIUse=3 WtCom= 4.64D-01 WtEn= 5.36D-01
 Coeff-Com:  0.100D+01
 Coeff-En:   0.100D+01
 Coeff:      0.100D+01
 Gap=     0.503 Goal=   None    Shift=    0.000
 GapD=    0.503 DampG=2.000 DampE=0.500 DampFc=1.0000 IDamp=-1.
 RMSDP=7.45D-03 MaxDP=1.13D-01              OVMax= 1.37D-01

 Cycle   2  Pass 1  IDiag  1:
 E= -195.072311138353     Delta-E=       -0.285175740900 Rises=F Damp=F
 DIIS: error= 2.10D-02 at cycle   2 NSaved=   2.
 NSaved= 2 IEnMin= 2 EnMin= -195.072311138353     IErMin= 2 ErrMin= 2.10D-02
 ErrMax= 2.10D-02 EMaxC= 1.00D-01 BMatC= 5.38D-02 BMatP= 4.16D-01
 IDIUse=3 WtCom= 7.90D-01 WtEn= 2.10D-01
 Coeff-Com:  0.210D+00 0.790D+00
 Coeff-En:   0.000D+00 0.100D+01
 Coeff:      0.166D+00 0.834D+00
 Gap=     0.525 Goal=   None    Shift=    0.000
 RMSDP=3.31D-03 MaxDP=3.24D-02 DE=-2.85D-01 OVMax= 4.85D-02

 Cycle   3  Pass 1  IDiag  1:
 E= -195.120974350461     Delta-E=       -0.048663212108 Rises=F Damp=F
 DIIS: error= 4.27D-03 at cycle   3 NSaved=   3.
 NSaved= 3 IEnMin= 3 EnMin= -195.120974350461     IErMin= 3 ErrMin= 4.27D-03
 ErrMax= 4.27D-03 EMaxC= 1.00D-01 BMatC= 1.99D-03 BMatP= 5.38D-02
 IDIUse=3 WtCom= 9.57D-01 WtEn= 4.27D-02
 Coeff-Com: -0.246D-01 0.112D+00 0.912D+00
 Coeff-En:   0.000D+00 0.000D+00 0.100D+01
 Coeff:     -0.235D-01 0.108D+00 0.916D+00
 Gap=     0.492 Goal=   None    Shift=    0.000
 RMSDP=4.98D-04 MaxDP=7.24D-03 DE=-4.87D-02 OVMax= 1.06D-02

 Cycle   4  Pass 1  IDiag  1:
 E= -195.123267213279     Delta-E=       -0.002292862818 Rises=F Damp=F
 DIIS: error= 6.50D-04 at cycle   4 NSaved=   4.
 NSaved= 4 IEnMin= 4 EnMin= -195.123267213279     IErMin= 4 ErrMin= 6.50D-04
 ErrMax= 6.50D-04 EMaxC= 1.00D-01 BMatC= 5.21D-05 BMatP= 1.99D-03
 IDIUse=3 WtCom= 9.94D-01 WtEn= 6.50D-03
 Coeff-Com: -0.484D-02 0.332D-03 0.109D+00 0.895D+00
 Coeff-En:   0.000D+00 0.000D+00 0.000D+00 0.100D+01
 Coeff:     -0.481D-02 0.329D-03 0.109D+00 0.896D+00
 Gap=     0.492 Goal=   None    Shift=    0.000
 RMSDP=1.42D-04 MaxDP=1.78D-03 DE=-2.29D-03 OVMax= 2.90D-03

 Cycle   5  Pass 1  IDiag  1:
 E= -195.123335099297     Delta-E=       -0.000067886018 Rises=F Damp=F
 DIIS: error= 2.54D-04 at cycle   5 NSaved=   5.
 NSaved= 5 IEnMin= 5 EnMin= -195.123335099297     IErMin= 5 ErrMin= 2.54D-04
 ErrMax= 2.54D-04 EMaxC= 1.00D-01 BMatC= 7.83D-06 BMatP= 5.21D-05
 IDIUse=3 WtCom= 9.97D-01 WtEn= 2.54D-03
 Coeff-Com:  0.235D-02-0.152D-01-0.974D-01 0.148D+00 0.963D+00
 Coeff-En:   0.000D+00 0.000D+00 0.000D+00 0.000D+00 0.100D+01
 Coeff:      0.235D-02-0.152D-01-0.972D-01 0.147D+00 0.963D+00
 Gap=     0.493 Goal=   None    Shift=    0.000
 RMSDP=5.85D-05 MaxDP=7.00D-04 DE=-6.79D-05 OVMax= 9.18D-04

 Cycle   6  Pass 1  IDiag  1:
 E= -195.123346346890     Delta-E=       -0.000011247593 Rises=F Damp=F
 DIIS: error= 6.45D-05 at cycle   6 NSaved=   6.
 NSaved= 6 IEnMin= 6 EnMin= -195.123346346890     IErMin= 6 ErrMin= 6.45D-05
 ErrMax= 6.45D-05 EMaxC= 1.00D-01 BMatC= 3.49D-07 BMatP= 7.83D-06
 IDIUse=1 WtCom= 1.00D+00 WtEn= 0.00D+00
 Coeff-Com:  0.759D-03-0.356D-02-0.267D-01-0.135D-01 0.197D+00 0.846D+00
 Coeff:      0.759D-03-0.356D-02-0.267D-01-0.135D-01 0.197D+00 0.846D+00
 Gap=     0.493 Goal=   None    Shift=    0.000
 RMSDP=1.06D-05 MaxDP=1.36D-04 DE=-1.12D-05 OVMax= 3.00D-04

 Cycle   7  Pass 1  IDiag  1:
 E= -195.123346888884     Delta-E=       -0.000000541994 Rises=F Damp=F
 DIIS: error= 2.16D-05 at cycle   7 NSaved=   7.
 NSaved= 7 IEnMin= 7 EnMin= -195.123346888884     IErMin= 7 ErrMin= 2.16D-05
 ErrMax= 2.16D-05 EMaxC= 1.00D-01 BMatC= 2.99D-08 BMatP= 3.49D-07
 IDIUse=1 WtCom= 1.00D+00 WtEn= 0.00D+00
 Coeff-Com: -0.938D-04 0.713D-03 0.456D-02-0.117D-01-0.565D-01 0.102D+00
 Coeff-Com:  0.960D+00
 Coeff:     -0.938D-04 0.713D-03 0.456D-02-0.117D-01-0.565D-01 0.102D+00
 Coeff:      0.960D+00
 Gap=     0.493 Goal=   None    Shift=    0.000
 RMSDP=3.55D-06 MaxDP=3.98D-05 DE=-5.42D-07 OVMax= 8.86D-05

 Cycle   8  Pass 1  IDiag  1:
 E= -195.123346950724     Delta-E=       -0.000000061840 Rises=F Damp=F
 DIIS: error= 1.07D-05 at cycle   8 NSaved=   8.
 NSaved= 8 IEnMin= 8 EnMin= -195.123346950724     IErMin= 8 ErrMin= 1.07D-05
 ErrMax= 1.07D-05 EMaxC= 1.00D-01 BMatC= 3.12D-09 BMatP= 2.99D-08
 IDIUse=1 WtCom= 1.00D+00 WtEn= 0.00D+00
 Coeff-Com: -0.631D-04 0.257D-03 0.208D-02 0.413D-02-0.137D-01-0.977D-01
 Coeff-Com: -0.201D+00 0.131D+01
 Coeff:     -0.631D-04 0.257D-03 0.208D-02 0.413D-02-0.137D-01-0.977D-01
 Coeff:     -0.201D+00 0.131D+01
 Gap=     0.493 Goal=   None    Shift=    0.000
 RMSDP=1.73D-06 MaxDP=2.38D-05 DE=-6.18D-08 OVMax= 5.95D-05

 Cycle   9  Pass 1  IDiag  1:
 E= -195.123346962828     Delta-E=       -0.000000012104 Rises=F Damp=F
 DIIS: error= 3.04D-06 at cycle   9 NSaved=   9.
 NSaved= 9 IEnMin= 9 EnMin= -195.123346962828     IErMin= 9 ErrMin= 3.04D-06
 ErrMax= 3.04D-06 EMaxC= 1.00D-01 BMatC= 3.17D-10 BMatP= 3.12D-09
 IDIUse=1 WtCom= 1.00D+00 WtEn= 0.00D+00
 Coeff-Com:  0.207D-04-0.121D-03-0.872D-03 0.696D-03 0.748D-02 0.133D-01
 Coeff-Com: -0.654D-01-0.263D+00 0.131D+01
 Coeff:      0.207D-04-0.121D-03-0.872D-03 0.696D-03 0.748D-02 0.133D-01
 Coeff:     -0.654D-01-0.263D+00 0.131D+01
 Gap=     0.493 Goal=   None    Shift=    0.000
 RMSDP=5.99D-07 MaxDP=9.62D-06 DE=-1.21D-08 OVMax= 2.15D-05

 Cycle  10  Pass 1  IDiag  1:
 E= -195.123346964034     Delta-E=       -0.000000001207 Rises=F Damp=F
 DIIS: error= 4.90D-07 at cycle  10 NSaved=  10.
 NSaved=10 IEnMin=10 EnMin= -195.123346964034     IErMin=10 ErrMin= 4.90D-07
 ErrMax= 4.90D-07 EMaxC= 1.00D-01 BMatC= 1.81D-11 BMatP= 3.17D-10
 IDIUse=1 WtCom= 1.00D+00 WtEn= 0.00D+00
 Coeff-Com:  0.585D-05-0.264D-04-0.206D-03-0.246D-03 0.115D-02 0.924D-02
 Coeff-Com:  0.127D-01-0.112D+00 0.440D-01 0.105D+01
 Coeff:      0.585D-05-0.264D-04-0.206D-03-0.246D-03 0.115D-02 0.924D-02
 Coeff:      0.127D-01-0.112D+00 0.440D-01 0.105D+01
 Gap=     0.493 Goal=   None    Shift=    0.000
 RMSDP=1.19D-07 MaxDP=1.43D-06 DE=-1.21D-09 OVMax= 3.83D-06

 Cycle  11  Pass 1  IDiag  1:
 E= -195.123346964088     Delta-E=       -0.000000000054 Rises=F Damp=F
 DIIS: error= 8.91D-08 at cycle  11 NSaved=  11.
 NSaved=11 IEnMin=11 EnMin= -195.123346964088     IErMin=11 ErrMin= 8.91D-08
 ErrMax= 8.91D-08 EMaxC= 1.00D-01 BMatC= 1.40D-12 BMatP= 1.81D-11
 IDIUse=1 WtCom= 1.00D+00 WtEn= 0.00D+00
 Coeff-Com: -0.142D-05 0.864D-05 0.620D-04-0.324D-04-0.619D-03-0.824D-03
 Coeff-Com:  0.432D-02 0.203D-01-0.998D-01 0.826D-03 0.108D+01
 Coeff:     -0.142D-05 0.864D-05 0.620D-04-0.324D-04-0.619D-03-0.824D-03
 Coeff:      0.432D-02 0.203D-01-0.998D-01 0.826D-03 0.108D+01
 Gap=     0.493 Goal=   None    Shift=    0.000
 RMSDP=3.03D-08 MaxDP=3.92D-07 DE=-5.38D-11 OVMax= 9.13D-07

 Cycle  12  Pass 1  IDiag  1:
 E= -195.123346964092     Delta-E=       -0.000000000004 Rises=F Damp=F
 DIIS: error= 2.86D-08 at cycle  12 NSaved=  12.
 NSaved=12 IEnMin=12 EnMin= -195.123346964092     IErMin=12 ErrMin= 2.86D-08
 ErrMax= 2.86D-08 EMaxC= 1.00D-01 BMatC= 9.39D-14 BMatP= 1.40D-12
 IDIUse=1 WtCom= 1.00D+00 WtEn= 0.00D+00
 Coeff-Com: -0.320D-06 0.146D-05 0.112D-04 0.281D-04-0.839D-04-0.543D-03
 Coeff-Com: -0.130D-02 0.753D-02 0.187D-03-0.689D-01-0.532D-01 0.112D+01
 Coeff:     -0.320D-06 0.146D-05 0.112D-04 0.281D-04-0.839D-04-0.543D-03
 Coeff:     -0.130D-02 0.753D-02 0.187D-03-0.689D-01-0.532D-01 0.112D+01
 Gap=     0.493 Goal=   None    Shift=    0.000
 RMSDP=8.42D-09 MaxDP=1.40D-07 DE=-3.98D-12 OVMax= 2.77D-07

 SCF Done:  E(RHF) =  -195.123346964     A.U. after   12 cycles
             Convg  =    0.8420D-08             -V/T =  2.0012
 KE= 1.948965380231D+02 PE=-8.062667822452D+02 EE= 2.398054521898D+02
 Leave Link  502 at Mon Apr 30 11:24:30 2018, MaxMem=  671088640 cpu:      96.8
 (Enter /shared/apps/gaussian/G09_LINUX_LINDA/g09/l601.exe)
 Copying SCF densities to generalized density rwf, IOpCl= 0 IROHF=0.

 **********************************************************************

            Population analysis using the SCF density.

 **********************************************************************

 Orbital symmetries:
       Occupied  (A) (A) (A) (A) (A) (A) (A) (A) (A) (A) (A) (A)
                 (A) (A) (A) (A) (A) (A) (A) (A)
       Virtual   (A) (A) (A) (A) (A) (A) (A) (A) (A) (A) (A) (A)
                 (A) (A) (A) (A) (A) (A) (A) (A) (A) (A) (A) (A)
                 (A) (A) (A) (A) (A) (A) (A) (A) (A) (A) (A) (A)
                 (A) (A) (A) (A) (A) (A) (A) (A) (A) (A) (A) (A)
                 (A) (A) (A) (A) (A) (A) (A) (A) (A) (A) (A) (A)
                 (A) (A) (A) (A) (A) (A) (A) (A) (A) (A) (A) (A)
                 (A) (A) (A)
 The electronic state is 1-A.
 Alpha  occ. eigenvalues --  -11.22616 -11.21925 -11.21854 -11.21621 -11.20978
 Alpha  occ. eigenvalues --   -1.10123  -0.98933  -0.93420  -0.86029  -0.69444
 Alpha  occ. eigenvalues --   -0.62735  -0.59762  -0.59166  -0.55666  -0.53000
 Alpha  occ. eigenvalues --   -0.51943  -0.50916  -0.49131  -0.46492  -0.32213
 Alpha virt. eigenvalues --    0.17073   0.23415   0.26455   0.27479   0.29516
 Alpha virt. eigenvalues --    0.31371   0.32254   0.33947   0.35338   0.36218
 Alpha virt. eigenvalues --    0.39650   0.41223   0.43736   0.50029   0.57711
 Alpha virt. eigenvalues --    0.71277   0.72663   0.75619   0.77116   0.80368
 Alpha virt. eigenvalues --    0.82488   0.85531   0.87800   0.94156   0.96476
 Alpha virt. eigenvalues --    0.98920   1.01515   1.05516   1.07890   1.09370
 Alpha virt. eigenvalues --    1.11987   1.14896   1.15028   1.16937   1.18134
 Alpha virt. eigenvalues --    1.18255   1.21553   1.22423   1.23137   1.27240
 Alpha virt. eigenvalues --    1.34657   1.43828   1.44949   1.65211   1.67129
 Alpha virt. eigenvalues --    1.69525   1.76784   1.89717   2.09163   2.13850
 Alpha virt. eigenvalues --    2.14708   2.19557   2.21780   2.27869   2.34149
 Alpha virt. eigenvalues --    2.42309   2.45418   2.49515   2.53625   2.54951
 Alpha virt. eigenvalues --    2.56762   2.62228   2.69445   2.77981   2.82692
 Alpha virt. eigenvalues --    2.88098   2.89276   3.00800   3.27667   3.40660
 Alpha virt. eigenvalues --    4.55023   4.62524   4.70911   4.73966   4.97207
          Condensed to atoms (all electrons):
              1          2          3          4          5          6
     1  C    5.020837   0.703141   0.329249  -0.049997  -0.054683   0.396505
     2  C    0.703141   4.876468  -0.061993   0.352037   0.351360  -0.044393
     3  C    0.329249  -0.061993   5.125213   0.004027  -0.012766  -0.043278
     4  C   -0.049997   0.352037   0.004027   5.110994  -0.073566  -0.007081
     5  C   -0.054683   0.351360  -0.012766  -0.073566   5.135661   0.004402
     6  H    0.396505  -0.044393  -0.043278  -0.007081   0.004402   0.520382
     7  H   -0.049330  -0.007257   0.393035  -0.000047  -0.003060   0.003809
     8  H   -0.035172  -0.005842   0.390829  -0.000113   0.000496   0.002246
     9  H   -0.036873   0.004143   0.393214  -0.000077   0.000395  -0.005098
    10  H    0.002072  -0.044983  -0.000089   0.386732  -0.002867   0.000150
    11  H   -0.002506  -0.049725   0.000120   0.391275   0.004807   0.003566
    12  H   -0.003913  -0.034819  -0.000111   0.386999  -0.000057   0.000140
    13  H    0.000198  -0.044292   0.000275   0.001458   0.385836  -0.000123
    14  H   -0.006125  -0.034150  -0.000729   0.003956   0.393978   0.000038
    15  H    0.000550  -0.044677   0.000337  -0.007458   0.390168  -0.000129
              7          8          9         10         11         12
     1  C   -0.049330  -0.035172  -0.036873   0.002072  -0.002506  -0.003913
     2  C   -0.007257  -0.005842   0.004143  -0.044983  -0.049725  -0.034819
     3  C    0.393035   0.390829   0.393214  -0.000089   0.000120  -0.000111
     4  C   -0.000047  -0.000113  -0.000077   0.386732   0.391275   0.386999
     5  C   -0.003060   0.000496   0.000395  -0.002867   0.004807  -0.000057
     6  H    0.003809   0.002246  -0.005098   0.000150   0.003566   0.000140
     7  H    0.550881  -0.024039  -0.029810   0.000033   0.000028  -0.000018
     8  H   -0.024039   0.529361  -0.028808  -0.000006  -0.000009   0.000036
     9  H   -0.029810  -0.028808   0.541964   0.000002  -0.000007   0.000000
    10  H    0.000033  -0.000006   0.000002   0.559655  -0.023208  -0.033814
    11  H    0.000028  -0.000009  -0.000007  -0.023208   0.533233  -0.021366
    12  H   -0.000018   0.000036   0.000000  -0.033814  -0.021366   0.530024
    13  H   -0.000381   0.000459  -0.000011  -0.000710  -0.000094   0.001358
    14  H    0.000956  -0.001211   0.000176   0.000110  -0.000130  -0.000131
    15  H    0.000595  -0.000073  -0.000004   0.003998   0.000037  -0.000021
             13         14         15
     1  C    0.000198  -0.006125   0.000550
     2  C   -0.044292  -0.034150  -0.044677
     3  C    0.000275  -0.000729   0.000337
     4  C    0.001458   0.003956  -0.007458
     5  C    0.385836   0.393978   0.390168
     6  H   -0.000123   0.000038  -0.000129
     7  H   -0.000381   0.000956   0.000595
     8  H    0.000459  -0.001211  -0.000073
     9  H   -0.000011   0.000176  -0.000004
    10  H   -0.000710   0.000110   0.003998
    11  H   -0.000094  -0.000130   0.000037
    12  H    0.001358  -0.000131  -0.000021
    13  H    0.545961  -0.022566  -0.033844
    14  H   -0.022566   0.513217  -0.026060
    15  H   -0.033844  -0.026060   0.554886
 Mulliken atomic charges:
              1
     1  C   -0.213954
     2  C    0.084982
     3  C   -0.517331
     4  C   -0.499138
     5  C   -0.520102
     6  H    0.168864
     7  H    0.164605
     8  H    0.171845
     9  H    0.160794
    10  H    0.152925
    11  H    0.163978
    12  H    0.175692
    13  H    0.166475
    14  H    0.178671
    15  H    0.161694
 Sum of Mulliken atomic charges =   0.00000
 Mulliken charges with hydrogens summed into heavy atoms:
              1
     1  C   -0.045089
     2  C    0.084982
     3  C   -0.020087
     4  C   -0.006543
     5  C   -0.013262
 Sum of Mulliken charges with hydrogens summed into heavy atoms =   0.00000
 Electronic spatial extent (au):  <R**2>=            520.2639
 Charge=              0.0000 electrons
 Dipole moment (field-independent basis, Debye):
    X=              0.1937    Y=              0.2899    Z=             -0.2606  Tot=              0.4353
 Quadrupole moment (field-independent basis, Debye-Ang):
   XX=            -33.1203   YY=            -33.4332   ZZ=            -34.2854
   XY=              0.3263   XZ=              0.3507   YZ=              0.5823
 Traceless Quadrupole moment (field-independent basis, Debye-Ang):
   XX=              0.4926   YY=              0.1798   ZZ=             -0.6724
   XY=              0.3263   XZ=              0.3507   YZ=              0.5823
 Octapole moment (field-independent basis, Debye-Ang**2):
  XXX=              0.1633  YYY=             -1.8462  ZZZ=              0.6738  XYY=             -0.9577
  XXY=              0.4431  XXZ=              0.3199  XZZ=              0.8481  YZZ=              1.3931
  YYZ=             -1.9326  XYZ=             -0.5811
 Hexadecapole moment (field-independent basis, Debye-Ang**3):
 XXXX=           -456.8932 YYYY=           -217.6680 ZZZZ=            -57.9287 XXXY=              5.6875
 XXXZ=              0.4287 YYYX=             -0.0400 YYYZ=              3.6759 ZZZX=              0.9294
 ZZZY=              0.6044 XXYY=           -111.3488 XXZZ=            -81.4423 YYZZ=            -45.6489
 XXYZ=             -0.4199 YYXZ=              1.4384 ZZXY=             -0.3274
 N-N= 1.764414450682D+02 E-N=-8.062667819562D+02  KE= 1.948965380231D+02
 No NMR shielding tensors so no spin-rotation constants.
 Leave Link  601 at Mon Apr 30 11:24:31 2018, MaxMem=  671088640 cpu:       9.1
 (Enter /shared/apps/gaussian/G09_LINUX_LINDA/g09/l701.exe)
 Compute integral first derivatives.
 ... and contract with generalized density number  0.
 Leave Link  701 at Mon Apr 30 11:24:32 2018, MaxMem=  671088640 cpu:       7.9
 (Enter /shared/apps/gaussian/G09_LINUX_LINDA/g09/l702.exe)
 L702 exits ... SP integral derivatives will be done elsewhere.
 Leave Link  702 at Mon Apr 30 11:24:32 2018, MaxMem=  671088640 cpu:       0.2
 (Enter /shared/apps/gaussian/G09_LINUX_LINDA/g09/l703.exe)
 Compute integral first derivatives, UseDBF=F ICtDFT=           0.
 Integral derivatives from FoFDir, PRISM(SPDF).
 Calling FoFJK, ICntrl=      2127 FMM=F ISym2X=0 I1Cent= 0 IOpClX= 0 NMat=1 NMatS=1 NMatT=0.
 FoFCou: FMM=F IPFlag=           0 FMFlag=      100000 FMFlg1=         800
         NFxFlg=           0 DoJE=F BraDBF=F KetDBF=F FulRan=T
         Omega=  0.000000  0.000000  1.000000  0.000000  0.000000 ICntrl=    2127 IOpCl=  0
         NMat0=    1 NMatS0=    1 NMatT0=    0 NMatD0=    1 NMtDS0=    0 NMtDT0=    0
         I1Cent=           0 NGrid=           0.
 Symmetry not used in FoFCou.
 Leave Link  703 at Mon Apr 30 11:24:33 2018, MaxMem=  671088640 cpu:       9.2
 (Enter /shared/apps/gaussian/G09_LINUX_LINDA/g09/l716.exe)
 Dipole        = 7.62097396D-02 1.14053916D-01-1.02519325D-01
 ***** Axes restored to original set *****
 -------------------------------------------------------------------
 Center     Atomic                   Forces (Hartrees/Bohr)
 Number     Number              X              Y              Z
 -------------------------------------------------------------------
      1        6          -0.026578743   -0.015838056    0.033048739
      2        6           0.007318191   -0.005850956   -0.017033640
      3        6           0.040183500    0.008681240    0.016339111
      4        6          -0.003914746   -0.018541928    0.016526752
      5        6          -0.024078674    0.024634358    0.003936344
      6        1           0.001156961    0.008537962   -0.023735643
      7        1           0.007184625   -0.000698279   -0.022846895
      8        1          -0.005568905   -0.006263519    0.014299687
      9        1          -0.012852758    0.007124468   -0.003322301
     10        1           0.012299682   -0.004647148   -0.011989691
     11        1          -0.014967666    0.009048412   -0.007779264
     12        1           0.005407710   -0.002455404    0.008689640
     13        1           0.010597137   -0.005320128    0.012182194
     14        1          -0.007958161   -0.002880390   -0.008728228
     15        1           0.011771848    0.004469366   -0.009586805
 -------------------------------------------------------------------
 Cartesian Forces:  Max     0.040183500 RMS     0.014463281
 Leave Link  716 at Mon Apr 30 11:24:33 2018, MaxMem=  671088640 cpu:       0.4
 (Enter /shared/apps/gaussian/G09_LINUX_LINDA/g09/l103.exe)

 GradGradGradGradGradGradGradGradGradGradGradGradGradGradGradGradGradGrad
 Berny optimization.
 Internal  Forces:  Max     0.028634182 RMS     0.010008897
 Search for a local minimum.
 Step number   1 out of a maximum of   70
 All quantities printed in internal units (Hartrees-Bohrs-Radians)
 Swaping is turned off.
 Second derivative matrix not updated -- first step.
 ITU=  0
     Eigenvalues ---    0.00753   0.01015   0.01091   0.01470   0.02195
     Eigenvalues ---    0.02968   0.06718   0.07013   0.07104   0.07633
     Eigenvalues ---    0.07753   0.07858   0.15008   0.16000   0.16000
     Eigenvalues ---    0.16000   0.16000   0.16000   0.16000   0.16000
     Eigenvalues ---    0.16000   0.16000   0.22270   0.24992   0.24996
     Eigenvalues ---    0.31647   0.32157   0.32272   0.32283   0.32331
     Eigenvalues ---    0.32695   0.32883   0.33029   0.33682   0.34364
     Eigenvalues ---    0.34392   0.34434   0.35096   0.58678
 Quadratic step=1.191D+00 exceeds max=3.000D-01 adjusted using Lamda=-9.740D-02.
 Angle between NR and scaled steps=  30.52 degrees.
 Angle between quadratic step and forces=  29.27 degrees.
 Linear search not attempted -- option 19 set.
 Iteration  1 RMS(Cart)=  0.08175019 RMS(Int)=  0.00265519
 Iteration  2 RMS(Cart)=  0.00358361 RMS(Int)=  0.00054967
 Iteration  3 RMS(Cart)=  0.00000848 RMS(Int)=  0.00054963
 Iteration  4 RMS(Cart)=  0.00000000 RMS(Int)=  0.00054963
 Variable       Old X    -DE/DX   Delta X   Delta X   Delta X     New X
                                 (Linear)    (Quad)   (Total)
    R1        2.52002   0.00155   0.00000   0.00226   0.00226   2.52228
    R2        2.78819   0.02863   0.00000   0.06386   0.06386   2.85206
    R3        2.06674  -0.01063   0.00000  -0.02408  -0.02408   2.04266
    R4        2.83648   0.00934   0.00000   0.02224   0.02224   2.85872
    R5        2.79904   0.02094   0.00000   0.04741   0.04741   2.84646
    R6        2.11495  -0.02190   0.00000  -0.05292  -0.05292   2.06203
    R7        2.09257  -0.01526   0.00000  -0.03581  -0.03581   2.05675
    R8        2.09591  -0.01489   0.00000  -0.03509  -0.03509   2.06083
    R9        2.10330  -0.01761   0.00000  -0.04192  -0.04192   2.06138
   R10        2.09000  -0.01408   0.00000  -0.03292  -0.03292   2.05708
   R11        2.07870  -0.01033   0.00000  -0.02379  -0.02379   2.05492
   R12        2.10557  -0.01629   0.00000  -0.03888  -0.03888   2.06669
   R13        2.06721  -0.01106   0.00000  -0.02507  -0.02507   2.04213
   R14        2.10243  -0.01549   0.00000  -0.03683  -0.03683   2.06560
    A1        2.11545   0.02248   0.00000   0.07609   0.07401   2.18946
    A2        2.03321  -0.00555   0.00000  -0.00355  -0.00556   2.02765
    A3        2.03945  -0.01043   0.00000  -0.02586  -0.02819   2.01126
    A4        2.12507  -0.00935   0.00000  -0.02698  -0.02699   2.09808
    A5        2.15744   0.00750   0.00000   0.02153   0.02150   2.17895
    A6        2.00043   0.00183   0.00000   0.00523   0.00522   2.00565
    A7        1.90754   0.01130   0.00000   0.04407   0.04401   1.95156
    A8        1.98378  -0.00183   0.00000  -0.01016  -0.01009   1.97369
    A9        1.94187  -0.00173   0.00000  -0.00397  -0.00413   1.93773
   A10        1.94905  -0.00904   0.00000  -0.04008  -0.03993   1.90912
   A11        1.82838  -0.00056   0.00000   0.00426   0.00397   1.83235
   A12        1.84654   0.00143   0.00000   0.00504   0.00501   1.85154
   A13        1.93983   0.00200   0.00000   0.00830   0.00778   1.94760
   A14        1.84613   0.01854   0.00000   0.07403   0.07371   1.91984
   A15        1.96720  -0.00586   0.00000  -0.02547  -0.02532   1.94188
   A16        1.90144  -0.00630   0.00000  -0.01870  -0.01967   1.88177
   A17        1.87616  -0.00034   0.00000  -0.00493  -0.00499   1.87117
   A18        1.93290  -0.00827   0.00000  -0.03367  -0.03332   1.89958
   A19        1.95419   0.00193   0.00000   0.00563   0.00548   1.95967
   A20        2.00356  -0.00062   0.00000  -0.00477  -0.00484   1.99871
   A21        1.86360   0.00542   0.00000   0.02511   0.02497   1.88857
   A22        1.92933  -0.00493   0.00000  -0.02538  -0.02546   1.90387
   A23        1.82996  -0.00044   0.00000   0.00316   0.00293   1.83289
   A24        1.87149  -0.00102   0.00000  -0.00095  -0.00100   1.87049
    D1        3.11706   0.00223   0.00000   0.01349   0.01291   3.12997
    D2        0.00000   0.00350   0.00000   0.02501   0.02441   0.02441
    D3       -0.49352   0.01409   0.00000   0.11343   0.11404  -0.37948
    D4        2.67261   0.01537   0.00000   0.12496   0.12553   2.79814
    D5        0.88879   0.00432   0.00000   0.04279   0.04244   0.93122
    D6       -1.30146   0.00871   0.00000   0.06853   0.06842  -1.23304
    D7        2.89946   0.00937   0.00000   0.07191   0.07183   2.97130
    D8       -1.78223  -0.00887   0.00000  -0.06332  -0.06331  -1.84554
    D9        2.31071  -0.00448   0.00000  -0.03757  -0.03732   2.27339
   D10        0.22845  -0.00382   0.00000  -0.03419  -0.03391   0.19454
   D11        2.47395   0.00216   0.00000   0.01129   0.01157   2.48552
   D12        0.41277  -0.00229   0.00000  -0.01436  -0.01497   0.39780
   D13       -1.70172  -0.00093   0.00000  -0.00692  -0.00684  -1.70855
   D14       -0.69011   0.00109   0.00000   0.00100   0.00144  -0.68868
   D15       -2.75130  -0.00337   0.00000  -0.02465  -0.02510  -2.77640
   D16        1.41740  -0.00200   0.00000  -0.01721  -0.01697   1.40043
   D17        1.97707  -0.00317   0.00000  -0.01860  -0.01875   1.95832
   D18       -0.24115   0.00252   0.00000   0.01588   0.01579  -0.22536
   D19       -2.31263   0.00042   0.00000   0.00255   0.00254  -2.31009
   D20       -1.14158  -0.00183   0.00000  -0.00739  -0.00736  -1.14894
   D21        2.92339   0.00387   0.00000   0.02710   0.02718   2.95056
   D22        0.85191   0.00177   0.00000   0.01377   0.01393   0.86584
         Item               Value     Threshold  Converged?
 Maximum Force            0.028634     0.000002     NO 
 RMS     Force            0.010009     0.000001     NO 
 Maximum Displacement     0.338610     0.000006     NO 
 RMS     Displacement     0.080267     0.000004     NO 
 Predicted change in Energy=-1.460658D-02
 GradGradGradGradGradGradGradGradGradGradGradGradGradGradGradGradGradGrad

 Leave Link  103 at Mon Apr 30 11:24:37 2018, MaxMem=  671088640 cpu:      44.1
 (Enter /shared/apps/gaussian/G09_LINUX_LINDA/g09/l202.exe)
                          Input orientation:                          
 ---------------------------------------------------------------------
 Center     Atomic      Atomic             Coordinates (Angstroms)
 Number     Number       Type             X           Y           Z
 ---------------------------------------------------------------------
      1          6           0        0.854817   -0.584588   -0.201043
      2          6           0       -0.407333   -0.165728   -0.086810
      3          6           0        2.081694    0.240755    0.101280
      4          6           0       -1.551268   -1.091554   -0.437141
      5          6           0       -0.819300    1.219621    0.337421
      6          1           0        1.004950   -1.654971   -0.188887
      7          1           0        2.043385    0.672401    1.102721
      8          1           0        2.254092    1.031418   -0.626538
      9          1           0        2.980269   -0.377146    0.094723
     10          1           0       -2.394905   -0.962049    0.242144
     11          1           0       -1.225401   -2.128003   -0.369723
     12          1           0       -1.916878   -0.903212   -1.443784
     13          1           0       -1.289484    1.779676   -0.475798
     14          1           0       -0.022799    1.814195    0.761537
     15          1           0       -1.594626    1.126192    1.102238
 ---------------------------------------------------------------------
                    Distance matrix (angstroms):
                    1          2          3          4          5
     1  C    0.000000
     2  C    1.334734   0.000000
     3  C    1.509243   2.529004   0.000000
     4  C    2.470223   1.512771   3.906835   0.000000
     5  C    2.519480   1.506280   3.070783   2.545045   0.000000
     6  H    1.080929   2.054947   2.199397   2.629320   3.445021
     7  H    2.166221   2.850169   1.091179   4.290017   3.013320
     8  H    2.179562   2.967767   1.088388   4.361610   3.226512
     9  H    2.155935   3.399043   1.090542   4.618234   4.128595
    10  H    3.301452   2.166283   4.637512   1.090836   2.692823
    11  H    2.595745   2.144715   4.095087   1.088560   3.445513
    12  H    3.054214   2.159627   4.436717   1.087415   2.980569
    13  H    3.203632   2.171197   3.750485   2.883398   1.093645
    14  H    2.729639   2.188071   2.709344   3.495200   1.080651
    15  H    3.259613   2.119565   3.911680   2.699994   1.093070
                    6          7          8          9         10
     6  H    0.000000
     7  H    2.857142   0.000000
     8  H    2.994758   1.778659   0.000000
     9  H    2.369631   1.730711   1.741150   0.000000
    10  H    3.496419   4.807332   5.132416   5.408913   0.000000
    11  H    2.287123   4.549211   4.706885   4.579178   1.761127
    12  H    3.267566   4.964970   4.669869   5.160019   1.753375
    13  H    4.140476   3.850427   3.624850   4.817485   3.042113
    14  H    3.740947   2.385207   2.779158   3.776908   3.688386
    15  H    4.019909   3.666203   4.220222   4.919835   2.396030
                   11         12         13         14         15
    11  H    0.000000
    12  H    1.769707   0.000000
    13  H    3.909644   2.920361   0.000000
    14  H    4.273983   3.979356   1.771067   0.000000
    15  H    3.590652   3.271781   1.735035   1.749304   0.000000
 Stoichiometry    C5H10
 Framework group  C1[X(C5H10)]
 Deg. of freedom    39
 Full point group                 C1      NOp   1
 Largest Abelian subgroup         C1      NOp   1
 Largest concise Abelian subgroup C1      NOp   1
                         Standard orientation:                         
 ---------------------------------------------------------------------
 Center     Atomic      Atomic             Coordinates (Angstroms)
 Number     Number       Type             X           Y           Z
 ---------------------------------------------------------------------
      1          6           0       -0.707234   -0.715386    0.026024
      2          6           0        0.444032   -0.040647   -0.002725
      3          6           0       -2.084213   -0.097545    0.021786
      4          6           0        1.762064   -0.782752    0.020621
      5          6           0        0.561410    1.461009   -0.014314
      6          1           0       -0.663762   -1.746499   -0.295419
      7          1           0       -2.214103    0.597837   -0.809023
      8          1           0       -2.329175    0.405322    0.955438
      9          1           0       -2.853332   -0.856958   -0.123225
     10          1           0        2.504260   -0.302876   -0.618745
     11          1           0        1.622318   -1.801120   -0.337651
     12          1           0        2.177138   -0.817773    1.025091
     13          1           0        0.994970    1.850189    0.911225
     14          1           0       -0.363566    1.981568   -0.217401
     15          1           0        1.268898    1.742234   -0.798646
 ---------------------------------------------------------------------
 Rotational constants (GHZ):      8.0409015      3.5617044      2.5894525
 Leave Link  202 at Mon Apr 30 11:24:38 2018, MaxMem=  671088640 cpu:       0.7
 (Enter /shared/apps/gaussian/G09_LINUX_LINDA/g09/l301.exe)
 Standard basis: 6-31G(d) (6D, 7F)
 Ernie: Thresh=  0.10000D-02 Tol=  0.10000D-05 Strict=F.
 There are    95 symmetry adapted basis functions of A   symmetry.
 Integral buffers will be    131072 words long.
 Raffenetti 1 integral format.
 Two-electron integral symmetry is turned on.
    95 basis functions,   180 primitive gaussians,    95 cartesian basis functions
    20 alpha electrons       20 beta electrons
       nuclear repulsion energy       174.7738372354 Hartrees.
 IExCor=    0 DFT=F Ex=HF Corr=None ExCW=0 ScaHFX=  1.000000
 ScaDFX=  1.000000  1.000000  1.000000  1.000000 ScalE2=  1.000000  1.000000
 IRadAn=      0 IRanWt=     -1 IRanGd=            0 ICorTp=0
 NAtoms=   15 NActive=   15 NUniq=   15 SFac= 1.00D+00 NAtFMM=   50 NAOKFM=F Big=F
 Leave Link  301 at Mon Apr 30 11:24:38 2018, MaxMem=  671088640 cpu:       1.0
 (Enter /shared/apps/gaussian/G09_LINUX_LINDA/g09/l302.exe)
 NPDir=0 NMtPBC=     1 NCelOv=     1 NCel=       1 NClECP=     1 NCelD=      1
         NCelK=      1 NCelE2=     1 NClLst=     1 CellRange=     0.0.
 One-electron integrals computed using PRISM.
 NBasis=    95 RedAO= T  NBF=    95
 NBsUse=    95 1.00D-06 NBFU=    95
 Leave Link  302 at Mon Apr 30 11:24:39 2018, MaxMem=  671088640 cpu:       6.9
 (Enter /shared/apps/gaussian/G09_LINUX_LINDA/g09/l303.exe)
 DipDrv:  MaxL=1.
 Leave Link  303 at Mon Apr 30 11:24:39 2018, MaxMem=  671088640 cpu:       1.6
 (Enter /shared/apps/gaussian/G09_LINUX_LINDA/g09/l401.exe)
 Initial guess read from the read-write file.
 B after Tr=     0.000000    0.000000    0.000000
         Rot=    1.000000    0.000000    0.000000    0.000000 Ang=   0.00 deg.
 Guess basis will be translated and rotated to current coordinates.
 Initial guess orbital symmetries:
       Occupied  (A) (A) (A) (A) (A) (A) (A) (A) (A) (A) (A) (A)
                 (A) (A) (A) (A) (A) (A) (A) (A)
       Virtual   (A) (A) (A) (A) (A) (A) (A) (A) (A) (A) (A) (A)
                 (A) (A) (A) (A) (A) (A) (A) (A) (A) (A) (A) (A)
                 (A) (A) (A) (A) (A) (A) (A) (A) (A) (A) (A) (A)
                 (A) (A) (A) (A) (A) (A) (A) (A) (A) (A) (A) (A)
                 (A) (A) (A) (A) (A) (A) (A) (A) (A) (A) (A) (A)
                 (A) (A) (A) (A) (A) (A) (A) (A) (A) (A) (A) (A)
                 (A) (A) (A)
 The electronic state of the initial guess is 1-A.
 Generating alternative initial guess.
 Harris functional with IExCor=  205 diagonalized for initial guess.
 ExpMin= 1.61D-01 ExpMax= 3.05D+03 ExpMxC= 4.57D+02 IAcc=1 IRadAn=         1 AccDes= 0.00D+00
 HarFok:  IExCor=  205 AccDes= 0.00D+00 IRadAn=         1 IDoV= 1
 ScaDFX=  1.000000  1.000000  1.000000  1.000000
 FoFCou: FMM=F IPFlag=           0 FMFlag=      100000 FMFlg1=           0
         NFxFlg=           0 DoJE=T BraDBF=F KetDBF=T FulRan=T
         Omega=  0.000000  0.000000  1.000000  0.000000  0.000000 ICntrl=     500 IOpCl=  0
         NMat0=    1 NMatS0=    1 NMatT0=    0 NMatD0=    1 NMtDS0=    0 NMtDT0=    0
         I1Cent=           4 NGrid=           0.
 Petite list used in FoFCou.
 Harris En= -195.644234831520    
 Leave Link  401 at Mon Apr 30 11:24:42 2018, MaxMem=  671088640 cpu:      29.3
 (Enter /shared/apps/gaussian/G09_LINUX_LINDA/g09/l502.exe)
 Closed shell SCF:
 Requested convergence on RMS density matrix=1.00D-08 within 128 cycles.
 Requested convergence on MAX density matrix=1.00D-06.
 Requested convergence on             energy=1.00D-06.
 No special actions if energy rises.
 Using DIIS extrapolation, IDIIS=  1040.
 Integral symmetry usage will be decided dynamically.
 Keep R1 ints in memory in canonical form, NReq=11266950.
 IEnd=       47856 IEndB=       47856 NGot=   671088640 MDV=   660667437
 LenX=   660667437 LenY=   660657971
 Symmetry not used in FoFDir.
 MinBra= 0 MaxBra= 2 Meth= 1.
 IRaf=       0 NMat=   1 IRICut=       1 DoRegI=T DoRafI=F ISym2E= 0 JSym2E=0.

 Cycle   1  Pass 1  IDiag  1:
 E= -195.129702689642    
 DIIS: error= 5.02D-03 at cycle   1 NSaved=   1.
 NSaved= 1 IEnMin= 1 EnMin= -195.129702689642     IErMin= 1 ErrMin= 5.02D-03
 ErrMax= 5.02D-03 EMaxC= 1.00D-01 BMatC= 4.07D-03 BMatP= 4.07D-03
 IDIUse=3 WtCom= 9.50D-01 WtEn= 5.02D-02
 Coeff-Com:  0.100D+01
 Coeff-En:   0.100D+01
 Coeff:      0.100D+01
 Gap=     0.509 Goal=   None    Shift=    0.000
 GapD=    0.509 DampG=2.000 DampE=1.000 DampFc=2.0000 IDamp=-1.
 RMSDP=7.14D-04 MaxDP=6.75D-03              OVMax= 1.48D-02

 Cycle   2  Pass 1  IDiag  1:
 E= -195.135703911211     Delta-E=       -0.006001221569 Rises=F Damp=F
 DIIS: error= 1.21D-03 at cycle   2 NSaved=   2.
 NSaved= 2 IEnMin= 2 EnMin= -195.135703911211     IErMin= 2 ErrMin= 1.21D-03
 ErrMax= 1.21D-03 EMaxC= 1.00D-01 BMatC= 3.09D-04 BMatP= 4.07D-03
 IDIUse=3 WtCom= 9.88D-01 WtEn= 1.21D-02
 Coeff-Com: -0.191D+00 0.119D+01
 Coeff-En:   0.000D+00 0.100D+01
 Coeff:     -0.189D+00 0.119D+01
 Gap=     0.505 Goal=   None    Shift=    0.000
 RMSDP=2.69D-04 MaxDP=2.77D-03 DE=-6.00D-03 OVMax= 5.94D-03

 Cycle   3  Pass 1  IDiag  1:
 E= -195.136278901618     Delta-E=       -0.000574990407 Rises=F Damp=F
 DIIS: error= 4.38D-04 at cycle   3 NSaved=   3.
 NSaved= 3 IEnMin= 3 EnMin= -195.136278901618     IErMin= 3 ErrMin= 4.38D-04
 ErrMax= 4.38D-04 EMaxC= 1.00D-01 BMatC= 2.87D-05 BMatP= 3.09D-04
 IDIUse=3 WtCom= 9.96D-01 WtEn= 4.38D-03
 Coeff-Com: -0.806D-01 0.189D+00 0.892D+00
 Coeff-En:   0.000D+00 0.000D+00 0.100D+01
 Coeff:     -0.802D-01 0.188D+00 0.892D+00
 Gap=     0.505 Goal=   None    Shift=    0.000
 RMSDP=8.19D-05 MaxDP=8.44D-04 DE=-5.75D-04 OVMax= 1.61D-03

 Cycle   4  Pass 1  IDiag  1:
 E= -195.136324027737     Delta-E=       -0.000045126119 Rises=F Damp=F
 DIIS: error= 1.29D-04 at cycle   4 NSaved=   4.
 NSaved= 4 IEnMin= 4 EnMin= -195.136324027737     IErMin= 4 ErrMin= 1.29D-04
 ErrMax= 1.29D-04 EMaxC= 1.00D-01 BMatC= 1.58D-06 BMatP= 2.87D-05
 IDIUse=3 WtCom= 9.99D-01 WtEn= 1.29D-03
 Coeff-Com:  0.107D-01-0.711D-01-0.142D-01 0.107D+01
 Coeff-En:   0.000D+00 0.000D+00 0.000D+00 0.100D+01
 Coeff:      0.107D-01-0.710D-01-0.142D-01 0.107D+01
 Gap=     0.505 Goal=   None    Shift=    0.000
 RMSDP=3.38D-05 MaxDP=3.68D-04 DE=-4.51D-05 OVMax= 7.13D-04

 Cycle   5  Pass 1  IDiag  1:
 E= -195.136328394024     Delta-E=       -0.000004366287 Rises=F Damp=F
 DIIS: error= 5.35D-05 at cycle   5 NSaved=   5.
 NSaved= 5 IEnMin= 5 EnMin= -195.136328394024     IErMin= 5 ErrMin= 5.35D-05
 ErrMax= 5.35D-05 EMaxC= 1.00D-01 BMatC= 1.65D-07 BMatP= 1.58D-06
 IDIUse=1 WtCom= 1.00D+00 WtEn= 0.00D+00
 Coeff-Com:  0.460D-02-0.919D-02-0.632D-01-0.440D-01 0.111D+01
 Coeff:      0.460D-02-0.919D-02-0.632D-01-0.440D-01 0.111D+01
 Gap=     0.505 Goal=   None    Shift=    0.000
 RMSDP=1.17D-05 MaxDP=1.04D-04 DE=-4.37D-06 OVMax= 2.93D-04

 Cycle   6  Pass 1  IDiag  1:
 E= -195.136328881491     Delta-E=       -0.000000487467 Rises=F Damp=F
 DIIS: error= 2.23D-05 at cycle   6 NSaved=   6.
 NSaved= 6 IEnMin= 6 EnMin= -195.136328881491     IErMin= 6 ErrMin= 2.23D-05
 ErrMax= 2.23D-05 EMaxC= 1.00D-01 BMatC= 1.98D-08 BMatP= 1.65D-07
 IDIUse=1 WtCom= 1.00D+00 WtEn= 0.00D+00
 Coeff-Com: -0.609D-03 0.607D-02-0.435D-02-0.101D+00 0.893D-01 0.101D+01
 Coeff:     -0.609D-03 0.607D-02-0.435D-02-0.101D+00 0.893D-01 0.101D+01
 Gap=     0.505 Goal=   None    Shift=    0.000
 RMSDP=3.53D-06 MaxDP=5.49D-05 DE=-4.87D-07 OVMax= 1.27D-04

 Cycle   7  Pass 1  IDiag  1:
 E= -195.136328941574     Delta-E=       -0.000000060083 Rises=F Damp=F
 DIIS: error= 6.73D-06 at cycle   7 NSaved=   7.
 NSaved= 7 IEnMin= 7 EnMin= -195.136328941574     IErMin= 7 ErrMin= 6.73D-06
 ErrMax= 6.73D-06 EMaxC= 1.00D-01 BMatC= 4.25D-09 BMatP= 1.98D-08
 IDIUse=1 WtCom= 1.00D+00 WtEn= 0.00D+00
 Coeff-Com: -0.803D-03 0.229D-02 0.913D-02-0.559D-02-0.181D+00 0.168D+00
 Coeff-Com:  0.101D+01
 Coeff:     -0.803D-03 0.229D-02 0.913D-02-0.559D-02-0.181D+00 0.168D+00
 Coeff:      0.101D+01
 Gap=     0.505 Goal=   None    Shift=    0.000
 RMSDP=1.74D-06 MaxDP=2.11D-05 DE=-6.01D-08 OVMax= 3.93D-05

 Cycle   8  Pass 1  IDiag  1:
 E= -195.136328951091     Delta-E=       -0.000000009517 Rises=F Damp=F
 DIIS: error= 1.68D-06 at cycle   8 NSaved=   8.
 NSaved= 8 IEnMin= 8 EnMin= -195.136328951091     IErMin= 8 ErrMin= 1.68D-06
 ErrMax= 1.68D-06 EMaxC= 1.00D-01 BMatC= 2.13D-10 BMatP= 4.25D-09
 IDIUse=1 WtCom= 1.00D+00 WtEn= 0.00D+00
 Coeff-Com: -0.143D-04-0.361D-03 0.118D-02 0.104D-01-0.249D-01-0.664D-01
 Coeff-Com:  0.433D-01 0.104D+01
 Coeff:     -0.143D-04-0.361D-03 0.118D-02 0.104D-01-0.249D-01-0.664D-01
 Coeff:      0.433D-01 0.104D+01
 Gap=     0.505 Goal=   None    Shift=    0.000
 RMSDP=4.44D-07 MaxDP=6.60D-06 DE=-9.52D-09 OVMax= 1.43D-05

 Cycle   9  Pass 1  IDiag  1:
 E= -195.136328951756     Delta-E=       -0.000000000665 Rises=F Damp=F
 DIIS: error= 6.45D-07 at cycle   9 NSaved=   9.
 NSaved= 9 IEnMin= 9 EnMin= -195.136328951756     IErMin= 9 ErrMin= 6.45D-07
 ErrMax= 6.45D-07 EMaxC= 1.00D-01 BMatC= 3.04D-11 BMatP= 2.13D-10
 IDIUse=1 WtCom= 1.00D+00 WtEn= 0.00D+00
 Coeff-Com:  0.864D-04-0.234D-03-0.103D-02 0.549D-03 0.181D-01-0.116D-01
 Coeff-Com: -0.125D+00 0.333D-01 0.109D+01
 Coeff:      0.864D-04-0.234D-03-0.103D-02 0.549D-03 0.181D-01-0.116D-01
 Coeff:     -0.125D+00 0.333D-01 0.109D+01
 Gap=     0.505 Goal=   None    Shift=    0.000
 RMSDP=1.46D-07 MaxDP=1.51D-06 DE=-6.65D-10 OVMax= 3.78D-06

 Cycle  10  Pass 1  IDiag  1:
 E= -195.136328951829     Delta-E=       -0.000000000073 Rises=F Damp=F
 DIIS: error= 1.85D-07 at cycle  10 NSaved=  10.
 NSaved=10 IEnMin=10 EnMin= -195.136328951829     IErMin=10 ErrMin= 1.85D-07
 ErrMax= 1.85D-07 EMaxC= 1.00D-01 BMatC= 1.79D-12 BMatP= 3.04D-11
 IDIUse=1 WtCom= 1.00D+00 WtEn= 0.00D+00
 Coeff-Com: -0.434D-05 0.428D-04-0.497D-04-0.808D-03 0.929D-03 0.772D-02
 Coeff-Com: -0.491D-02-0.653D-01-0.674D-01 0.113D+01
 Coeff:     -0.434D-05 0.428D-04-0.497D-04-0.808D-03 0.929D-03 0.772D-02
 Coeff:     -0.491D-02-0.653D-01-0.674D-01 0.113D+01
 Gap=     0.505 Goal=   None    Shift=    0.000
 RMSDP=3.90D-08 MaxDP=4.59D-07 DE=-7.30D-11 OVMax= 1.27D-06

 Cycle  11  Pass 1  IDiag  1:
 E= -195.136328951834     Delta-E=       -0.000000000005 Rises=F Damp=F
 DIIS: error= 5.31D-08 at cycle  11 NSaved=  11.
 NSaved=11 IEnMin=11 EnMin= -195.136328951834     IErMin=11 ErrMin= 5.31D-08
 ErrMax= 5.31D-08 EMaxC= 1.00D-01 BMatC= 1.83D-13 BMatP= 1.79D-12
 IDIUse=1 WtCom= 1.00D+00 WtEn= 0.00D+00
 Coeff-Com: -0.588D-05 0.124D-04 0.816D-04 0.932D-04-0.163D-02 0.313D-03
 Coeff-Com:  0.831D-02 0.145D-01-0.858D-01-0.185D+00 0.125D+01
 Coeff:     -0.588D-05 0.124D-04 0.816D-04 0.932D-04-0.163D-02 0.313D-03
 Coeff:      0.831D-02 0.145D-01-0.858D-01-0.185D+00 0.125D+01
 Gap=     0.505 Goal=   None    Shift=    0.000
 RMSDP=1.36D-08 MaxDP=1.41D-07 DE=-5.06D-12 OVMax= 4.41D-07

 Cycle  12  Pass 1  IDiag  1:
 E= -195.136328951835     Delta-E=       -0.000000000001 Rises=F Damp=F
 DIIS: error= 1.48D-08 at cycle  12 NSaved=  12.
 NSaved=12 IEnMin=12 EnMin= -195.136328951835     IErMin=12 ErrMin= 1.48D-08
 ErrMax= 1.48D-08 EMaxC= 1.00D-01 BMatC= 1.23D-14 BMatP= 1.83D-13
 IDIUse=1 WtCom= 1.00D+00 WtEn= 0.00D+00
 Coeff-Com:  0.960D-06-0.443D-05-0.776D-05 0.568D-04 0.121D-03-0.488D-03
 Coeff-Com: -0.126D-02 0.469D-02 0.124D-01-0.582D-01-0.155D+00 0.120D+01
 Coeff:      0.960D-06-0.443D-05-0.776D-05 0.568D-04 0.121D-03-0.488D-03
 Coeff:     -0.126D-02 0.469D-02 0.124D-01-0.582D-01-0.155D+00 0.120D+01
 Gap=     0.505 Goal=   None    Shift=    0.000
 RMSDP=3.31D-09 MaxDP=3.46D-08 DE=-1.48D-12 OVMax= 1.21D-07

 SCF Done:  E(RHF) =  -195.136328952     A.U. after   12 cycles
             Convg  =    0.3314D-08             -V/T =  2.0008
 KE= 1.949738282277D+02 PE=-8.030185729539D+02 EE= 2.381345785390D+02
 Leave Link  502 at Mon Apr 30 11:24:49 2018, MaxMem=  671088640 cpu:      70.4
 (Enter /shared/apps/gaussian/G09_LINUX_LINDA/g09/l701.exe)
 Compute integral first derivatives.
 ... and contract with generalized density number  0.
 Leave Link  701 at Mon Apr 30 11:24:50 2018, MaxMem=  671088640 cpu:       9.0
 (Enter /shared/apps/gaussian/G09_LINUX_LINDA/g09/l702.exe)
 L702 exits ... SP integral derivatives will be done elsewhere.
 Leave Link  702 at Mon Apr 30 11:24:50 2018, MaxMem=  671088640 cpu:       0.2
 (Enter /shared/apps/gaussian/G09_LINUX_LINDA/g09/l703.exe)
 Compute integral first derivatives, UseDBF=F ICtDFT=           0.
 Integral derivatives from FoFDir, PRISM(SPDF).
 Calling FoFJK, ICntrl=      2127 FMM=F ISym2X=0 I1Cent= 0 IOpClX= 0 NMat=1 NMatS=1 NMatT=0.
 FoFCou: FMM=F IPFlag=           0 FMFlag=      100000 FMFlg1=         800
         NFxFlg=           0 DoJE=F BraDBF=F KetDBF=F FulRan=T
         Omega=  0.000000  0.000000  1.000000  0.000000  0.000000 ICntrl=    2127 IOpCl=  0
         NMat0=    1 NMatS0=    1 NMatT0=    0 NMatD0=    1 NMtDS0=    0 NMtDT0=    0
         I1Cent=           0 NGrid=           0.
 Symmetry not used in FoFCou.
 Leave Link  703 at Mon Apr 30 11:24:51 2018, MaxMem=  671088640 cpu:       7.7
 (Enter /shared/apps/gaussian/G09_LINUX_LINDA/g09/l716.exe)
 Dipole        = 6.48361601D-02 1.00850588D-01-7.77265309D-02
 ***** Axes restored to original set *****
 -------------------------------------------------------------------
 Center     Atomic                   Forces (Hartrees/Bohr)
 Number     Number              X              Y              Z
 -------------------------------------------------------------------
      1        6          -0.011819906   -0.000075909    0.031360489
      2        6           0.008476972   -0.002159612   -0.010423577
      3        6           0.010609297   -0.002242871    0.001586622
      4        6           0.000887627   -0.004584222    0.009498089
      5        6          -0.011037712    0.003188289   -0.002389120
      6        1           0.001439296    0.001874479   -0.017807745
      7        1          -0.001664010    0.002738827   -0.004678875
      8        1          -0.002909344    0.000708142    0.003128511
      9        1          -0.004152099   -0.000045619   -0.002309070
     10        1           0.002172726   -0.000490576   -0.001841380
     11        1          -0.003034915    0.001923638   -0.003521102
     12        1           0.000573994    0.000121160    0.000406474
     13        1           0.004198814   -0.001196129    0.001254162
     14        1           0.002715380   -0.000253053   -0.002989606
     15        1           0.003543880    0.000493457   -0.001273870
 -------------------------------------------------------------------
 Cartesian Forces:  Max     0.031360489 RMS     0.006928189
 Leave Link  716 at Mon Apr 30 11:24:51 2018, MaxMem=  671088640 cpu:       0.4
 (Enter /shared/apps/gaussian/G09_LINUX_LINDA/g09/l103.exe)

 GradGradGradGradGradGradGradGradGradGradGradGradGradGradGradGradGradGrad
 Berny optimization.
 Using GDIIS optimizer.
 Internal  Forces:  Max     0.010586572 RMS     0.003392773
 Search for a local minimum.
 Step number   2 out of a maximum of   70
 All quantities printed in internal units (Hartrees-Bohrs-Radians)
 Swaping is turned off.
 Update second derivatives using D2CorX and points    1    2
 DE= -1.30D-02 DEPred=-1.46D-02 R= 8.89D-01
 SS=  1.41D+00  RLast= 3.01D-01 DXNew= 5.0454D-01 9.0233D-01
 Trust test= 8.89D-01 RLast= 3.01D-01 DXMaxT set to 5.05D-01
 ITU=  1  0
     Eigenvalues ---    0.00753   0.01015   0.01093   0.01474   0.02138
     Eigenvalues ---    0.03012   0.06699   0.06962   0.07193   0.07300
     Eigenvalues ---    0.07431   0.07639   0.15315   0.15564   0.16000
     Eigenvalues ---    0.16000   0.16000   0.16000   0.16000   0.16000
     Eigenvalues ---    0.16000   0.16828   0.23154   0.24927   0.25889
     Eigenvalues ---    0.31645   0.31841   0.32220   0.32298   0.32413
     Eigenvalues ---    0.32600   0.32920   0.32981   0.33734   0.34331
     Eigenvalues ---    0.34393   0.34753   0.37488   0.60478
 DIIS coeff's:      1.42074     -0.42074
 Cosine:  1.000 >  0.970
 Length:  0.999
 GDIIS step was calculated using  2 of the last  2 vectors.
 Iteration  1 RMS(Cart)=  0.08165752 RMS(Int)=  0.03143075
 Iteration  2 RMS(Cart)=  0.04921571 RMS(Int)=  0.00525682
 Iteration  3 RMS(Cart)=  0.00191362 RMS(Int)=  0.00491366
 Iteration  4 RMS(Cart)=  0.00000318 RMS(Int)=  0.00491366
 Iteration  5 RMS(Cart)=  0.00000003 RMS(Int)=  0.00491366
 Variable       Old X    -DE/DX   Delta X   Delta X   Delta X     New X
                                  (DIIS)     (GDIIS)  (Total)
    R1        2.52228  -0.00993   0.00095  -0.02511  -0.02416   2.49812
    R2        2.85206   0.00171   0.02687  -0.02635   0.00052   2.85258
    R3        2.04266  -0.00186  -0.01013   0.00494  -0.00520   2.03746
    R4        2.85872   0.00035   0.00936  -0.01028  -0.00092   2.85780
    R5        2.84646   0.00069   0.01995  -0.02196  -0.00201   2.84445
    R6        2.06203  -0.00315  -0.02227   0.01409  -0.00817   2.05386
    R7        2.05675  -0.00204  -0.01507   0.01013  -0.00494   2.05182
    R8        2.06083  -0.00338  -0.01476   0.00389  -0.01088   2.04995
    R9        2.06138  -0.00289  -0.01764   0.00957  -0.00807   2.05331
   R10        2.05708  -0.00296  -0.01385   0.00467  -0.00918   2.04790
   R11        2.05492  -0.00055  -0.01001   0.01020   0.00019   2.05511
   R12        2.06669  -0.00335  -0.01636   0.00587  -0.01049   2.05620
   R13        2.04213   0.00069  -0.01055   0.01597   0.00542   2.04756
   R14        2.06560  -0.00345  -0.01549   0.00441  -0.01109   2.05451
    A1        2.18946   0.00025   0.03114  -0.01741  -0.00798   2.18148
    A2        2.02765   0.00249  -0.00234   0.07035   0.04624   2.07390
    A3        2.01126  -0.00017  -0.01186   0.04986   0.01633   2.02760
    A4        2.09808   0.00265  -0.01136   0.03014   0.01862   2.11670
    A5        2.17895  -0.00453   0.00905  -0.03826  -0.02933   2.14962
    A6        2.00565   0.00185   0.00219   0.00734   0.00939   2.01504
    A7        1.95156   0.00109   0.01852  -0.02183  -0.00365   1.94790
    A8        1.97369  -0.00142  -0.00425  -0.01448  -0.01902   1.95467
    A9        1.93773  -0.00267  -0.00174  -0.01029  -0.01213   1.92560
   A10        1.90912  -0.00261  -0.01680  -0.01532  -0.03260   1.87652
   A11        1.83235   0.00352   0.00167   0.04546   0.04699   1.87934
   A12        1.85154   0.00250   0.00211   0.02291   0.02496   1.87650
   A13        1.94760   0.00001   0.00327  -0.00260   0.00029   1.94789
   A14        1.91984   0.00480   0.03101  -0.00375   0.02706   1.94690
   A15        1.94188  -0.00202  -0.01065  -0.00580  -0.01636   1.92552
   A16        1.88177  -0.00077  -0.00828   0.01565   0.00675   1.88852
   A17        1.87117   0.00016  -0.00210   0.00076  -0.00143   1.86974
   A18        1.89958  -0.00233  -0.01402  -0.00354  -0.01729   1.88229
   A19        1.95967  -0.00067   0.00230  -0.01348  -0.01214   1.94753
   A20        1.99871  -0.00411  -0.00204  -0.04260  -0.04529   1.95343
   A21        1.88857   0.00226   0.01051   0.01641   0.02690   1.91547
   A22        1.90387  -0.00026  -0.01071  -0.00578  -0.01795   1.88592
   A23        1.83289   0.00192   0.00123   0.03426   0.03517   1.86806
   A24        1.87049   0.00154  -0.00042   0.02016   0.02003   1.89052
    D1        3.12997   0.00162   0.00543  -0.01741  -0.01377   3.11620
    D2        0.02441   0.00224   0.01027   0.00984   0.01812   0.04253
    D3       -0.37948   0.00996   0.04798   0.32718   0.37715  -0.00233
    D4        2.79814   0.01059   0.05282   0.35443   0.40904  -3.07600
    D5        0.93122   0.00228   0.01786   0.14423   0.16079   1.09202
    D6       -1.23304   0.00600   0.02879   0.19291   0.22010  -1.01293
    D7        2.97130   0.00564   0.03022   0.18059   0.20941  -3.10247
    D8       -1.84554  -0.00649  -0.02664  -0.20148  -0.22655  -2.07209
    D9        2.27339  -0.00277  -0.01570  -0.15280  -0.16724   2.10615
   D10        0.19454  -0.00313  -0.01427  -0.16512  -0.17793   0.01661
   D11        2.48552   0.00067   0.00487  -0.08321  -0.07790   2.40762
   D12        0.39780  -0.00154  -0.00630  -0.09867  -0.10509   0.29271
   D13       -1.70855  -0.00050  -0.00288  -0.08792  -0.09043  -1.79898
   D14       -0.68868  -0.00003   0.00060  -0.10885  -0.10826  -0.79694
   D15       -2.77640  -0.00224  -0.01056  -0.12431  -0.13545  -2.91185
   D16        1.40043  -0.00120  -0.00714  -0.11356  -0.12079   1.27965
   D17        1.95832  -0.00226  -0.00789   0.00944   0.00214   1.96046
   D18       -0.22536   0.00203   0.00664   0.06378   0.06990  -0.15546
   D19       -2.31009   0.00108   0.00107   0.05360   0.05507  -2.25501
   D20       -1.14894  -0.00169  -0.00310   0.03492   0.03210  -1.11684
   D21        2.95056   0.00260   0.01143   0.08926   0.09986   3.05042
   D22        0.86584   0.00165   0.00586   0.07908   0.08503   0.95087
         Item               Value     Threshold  Converged?
 Maximum Force            0.010587     0.000002     NO 
 RMS     Force            0.003393     0.000001     NO 
 Maximum Displacement     0.426390     0.000006     NO 
 RMS     Displacement     0.120056     0.000004     NO 
 Predicted change in Energy=-8.307119D-03
 GradGradGradGradGradGradGradGradGradGradGradGradGradGradGradGradGradGrad

 Leave Link  103 at Mon Apr 30 11:24:56 2018, MaxMem=  671088640 cpu:      49.5
 (Enter /shared/apps/gaussian/G09_LINUX_LINDA/g09/l202.exe)
                          Input orientation:                          
 ---------------------------------------------------------------------
 Center     Atomic      Atomic             Coordinates (Angstroms)
 Number     Number       Type             X           Y           Z
 ---------------------------------------------------------------------
      1          6           0        0.843132   -0.610675   -0.111998
      2          6           0       -0.410304   -0.195411   -0.048716
      3          6           0        2.053404    0.241978    0.182743
      4          6           0       -1.560383   -1.114739   -0.393909
      5          6           0       -0.792269    1.222614    0.281423
      6          1           0        1.039491   -1.626741   -0.414523
      7          1           0        2.059198    0.585897    1.213731
      8          1           0        2.097448    1.119748   -0.454820
      9          1           0        2.963204   -0.325887    0.019789
     10          1           0       -2.384030   -1.005427    0.306293
     11          1           0       -1.252762   -2.153859   -0.395194
     12          1           0       -1.947483   -0.880513   -1.382838
     13          1           0       -1.238850    1.726263   -0.573476
     14          1           0        0.060773    1.806026    0.606949
     15          1           0       -1.533361    1.227735    1.076887
 ---------------------------------------------------------------------
                    Distance matrix (angstroms):
                    1          2          3          4          5
     1  C    0.000000
     2  C    1.321950   0.000000
     3  C    1.509518   2.512914   0.000000
     4  C    2.471931   1.512284   3.902905   0.000000
     5  C    2.488024   1.505219   3.011518   2.551331   0.000000
     6  H    1.078178   2.069885   2.208360   2.649890   3.458107
     7  H    2.160592   2.881433   1.086854   4.310225   3.066834
     8  H    2.164532   2.860662   1.085775   4.286767   2.983806
     9  H    2.143170   3.376725   1.084786   4.610453   4.070612
    10  H    3.278013   2.162811   4.611085   1.086566   2.738337
    11  H    2.618089   2.159931   4.123685   1.083700   3.474253
    12  H    3.078210   2.147595   4.440509   1.087515   2.920175
    13  H    3.163682   2.157473   3.689702   2.864772   1.088093
    14  H    2.639965   2.158139   2.568419   3.487224   1.083521
    15  H    3.231241   2.133913   3.825715   2.766072   1.087202
                    6          7          8          9         10
     6  H    0.000000
     7  H    2.930321   0.000000
     8  H    2.943484   1.752291   0.000000
     9  H    2.362524   1.753304   1.750614   0.000000
    10  H    3.553322   4.806041   5.017899   5.397849   0.000000
    11  H    2.352159   4.589552   4.684439   4.613899   1.758053
    12  H    3.227461   4.994599   4.606922   5.137102   1.749097
    13  H    4.056937   3.920671   3.393055   4.713867   3.089912
    14  H    3.712840   2.418802   2.397160   3.648824   3.737877
    15  H    4.122124   3.652008   3.942152   4.873428   2.510869
                   11         12         13         14         15
    11  H    0.000000
    12  H    1.754848   0.000000
    13  H    3.884241   2.820019   0.000000
    14  H    4.290730   3.899979   1.757494   0.000000
    15  H    3.698776   3.265954   1.748989   1.759695   0.000000
 Stoichiometry    C5H10
 Framework group  C1[X(C5H10)]
 Deg. of freedom    39
 Full point group                 C1      NOp   1
 Largest Abelian subgroup         C1      NOp   1
 Largest concise Abelian subgroup C1      NOp   1
                         Standard orientation:                         
 ---------------------------------------------------------------------
 Center     Atomic      Atomic             Coordinates (Angstroms)
 Number     Number       Type             X           Y           Z
 ---------------------------------------------------------------------
      1          6           0       -0.680154   -0.732928   -0.003638
      2          6           0        0.447459   -0.043337   -0.026093
      3          6           0       -2.063816   -0.129528    0.002355
      4          6           0        1.791768   -0.735451    0.002485
      5          6           0        0.493504    1.460864    0.004618
      6          1           0       -0.630577   -1.809321    0.033620
      7          1           0       -2.254337    0.443774   -0.901125
      8          1           0       -2.214340    0.534174    0.848375
      9          1           0       -2.815002   -0.909873    0.061876
     10          1           0        2.492659   -0.276896   -0.689689
     11          1           0        1.704253   -1.785596   -0.250382
     12          1           0        2.230786   -0.667100    0.995097
     13          1           0        0.920593    1.829357    0.935077
     14          1           0       -0.491294    1.898154   -0.109252
     15          1           0        1.124695    1.825611   -0.801958
 ---------------------------------------------------------------------
 Rotational constants (GHZ):      8.1375725      3.6049534      2.6183239
 Leave Link  202 at Mon Apr 30 11:24:57 2018, MaxMem=  671088640 cpu:       0.6
 (Enter /shared/apps/gaussian/G09_LINUX_LINDA/g09/l301.exe)
 Standard basis: 6-31G(d) (6D, 7F)
 Ernie: Thresh=  0.10000D-02 Tol=  0.10000D-05 Strict=F.
 There are    95 symmetry adapted basis functions of A   symmetry.
 Integral buffers will be    131072 words long.
 Raffenetti 1 integral format.
 Two-electron integral symmetry is turned on.
    95 basis functions,   180 primitive gaussians,    95 cartesian basis functions
    20 alpha electrons       20 beta electrons
       nuclear repulsion energy       175.5463965604 Hartrees.
 IExCor=    0 DFT=F Ex=HF Corr=None ExCW=0 ScaHFX=  1.000000
 ScaDFX=  1.000000  1.000000  1.000000  1.000000 ScalE2=  1.000000  1.000000
 IRadAn=      0 IRanWt=     -1 IRanGd=            0 ICorTp=0
 NAtoms=   15 NActive=   15 NUniq=   15 SFac= 1.00D+00 NAtFMM=   50 NAOKFM=F Big=F
 Leave Link  301 at Mon Apr 30 11:24:57 2018, MaxMem=  671088640 cpu:       0.9
 (Enter /shared/apps/gaussian/G09_LINUX_LINDA/g09/l302.exe)
 NPDir=0 NMtPBC=     1 NCelOv=     1 NCel=       1 NClECP=     1 NCelD=      1
[...]
 ! D11   D(1,2,4,10)           120.7677         -DE/DX =    0.0                 !
 ! D12   D(1,2,4,11)             0.0            -DE/DX =    0.0                 !
 ! D13   D(1,2,4,12)          -120.7677         -DE/DX =    0.0                 !
 ! D14   D(5,2,4,10)           -59.2323         -DE/DX =    0.0                 !
 ! D15   D(5,2,4,11)           180.0            -DE/DX =    0.0                 !
 ! D16   D(5,2,4,12)            59.2323         -DE/DX =    0.0                 !
 ! D17   D(1,2,5,13)           121.1474         -DE/DX =    0.0                 !
 ! D18   D(1,2,5,14)             0.0            -DE/DX =    0.0                 !
 ! D19   D(1,2,5,15)          -121.1475         -DE/DX =    0.0                 !
 ! D20   D(4,2,5,13)           -58.8526         -DE/DX =    0.0                 !
 ! D21   D(4,2,5,14)           180.0            -DE/DX =    0.0                 !
 ! D22   D(4,2,5,15)            58.8525         -DE/DX =    0.0                 !
 --------------------------------------------------------------------------------
 GradGradGradGradGradGradGradGradGradGradGradGradGradGradGradGradGradGrad

 Leave Link  103 at Mon Apr 30 11:36:47 2018, MaxMem=  671088640 cpu:      32.0
 (Enter /shared/apps/gaussian/G09_LINUX_LINDA/g09/l9999.exe)

 Test job not archived.
 1\1\GINC-COMPUTE-3-045\Freq\RHF\6-31G(d)\C5H10\ROOT\30-Apr-2018\0\\#P 
 Geom=AllCheck Guess=TCheck SCRF=Check Test GenChk RHF/6-31G(d) Freq\\G
 aussian input prepared by ASE\\0,1\C,0.8403359282,-0.5906916783,0.0119
 694495\C,-0.4070097644,-0.1537119169,-0.0784337125\C,2.0984343081,0.18
 98319413,0.2801795056\C,-1.5429851117,-1.110006025,-0.357069842\C,-0.8
 433968743,1.2831963802,0.0760635163\H,1.002738511,-1.6494120765,-0.121
 4785558\H,2.5912969951,-0.1803743792,1.1759417378\H,1.927037919,1.2495
 685786,0.4126659453\H,2.802715223,0.0682572929,-0.5393107634\H,-2.2772
 544248,-1.0841436933,0.4451847938\H,-1.1953802121,-2.1309548994,-0.462
 2154524\H,-2.0657570322,-0.8354176314,-1.2707128436\H,-1.3478509042,1.
 6236426493,-0.8253682583\H,-0.0264601813,1.9621936076,0.2751811074\H,-
 1.5592524411,1.3750303824,0.8897428854\\Version=EM64L-G09RevB.01\State
 =1-A\HF=-195.1457681\RMSD=6.036e-10\RMSF=7.421e-09\ZeroPoint=0.1458055
 \Thermal=0.1524437\Dipole=-0.0381187,0.0515248,0.0027703\DipoleDeriv=0
 .0530282,-0.0150189,0.0362703,0.0973952,0.043784,0.0558796,0.0525652,0
 .0420237,-0.2463278,0.1594033,-0.0103079,0.0391288,-0.0766724,0.181136
 ,0.0414733,0.029509,0.0496532,-0.1593398,0.0991313,-0.0516336,-0.02624
 71,0.0129308,0.0884565,-0.0220189,-0.0168883,-0.0299769,0.2449277,0.12
 17058,-0.0278628,-0.0178385,0.0265884,0.0519555,-0.0230621,-0.0099455,
 -0.0297736,0.2281222,0.0959351,-0.0197801,-0.018655,-0.0451111,0.02549
 8,-0.0343373,-0.0223269,-0.031215,0.2167466,-0.01101,0.0041174,-0.0160
 997,0.0218835,-0.1785965,-0.0412304,-0.0135244,-0.0434202,0.1164893,-0
 .0759686,0.0177137,-0.0816854,-0.0065936,0.0288122,0.0765885,-0.137137
 5,0.061414,-0.1067848,0.0223865,0.0529535,0.0038284,-0.0208359,-0.1571
 102,-0.0331114,-0.0068676,-0.0240163,0.0492729,-0.1296245,0.0031917,0.
 0832048,-0.0313212,0.0568611,-0.0408186,0.1301307,-0.018394,-0.0811779
 ,-0.1241802,-0.0211,0.0856105,-0.0308851,0.049368,-0.0397471,0.1326743
 ,-0.0024845,-0.0808289,0.006237,0.0846682,0.0055179,0.0023199,-0.15988
 25,-0.0317379,-0.0064188,-0.0215878,0.057121,-0.0690259,-0.0005664,-0.
 0879684,-0.0053651,0.027248,0.0753113,-0.1371462,0.0398462,-0.1138631,
 -0.0167494,0.0618483,-0.085218,0.082103,-0.0021365,0.0247683,-0.106068
 1,0.0748319,-0.1079458,-0.0595663,-0.1239361,-0.0327212,-0.0732451,-0.
 0687761,-0.0277165,-0.0253733,-0.0339646,0.0520999,-0.0717024,0.045713
 ,0.1128726,0.0468086,0.0133825,0.0197592,0.1368175,-0.032936,-0.068511
 7\Polar=69.2361257,-4.0734391,49.2440147,3.3044942,1.1805353,38.214472
 3\PolarDeriv=18.9440753,-4.4127707,-0.0933656,0.7899345,-0.346475,0.50
 81231,-3.9481442,0.6332438,4.0009974,-1.2734512,1.1250779,-0.9623494,0
 .0808032,-1.1543067,1.2429843,6.6733928,-2.2793541,0.9305019,-18.81801
 12,4.5945302,0.5625682,-0.7597342,0.5838662,-0.9501048,6.4431615,-1.63
 35782,-0.7565814,1.3893567,-0.6439134,0.7485284,0.1540785,1.0250552,-0
 .5336784,-6.0731551,1.7562086,-1.054839,-7.3435229,1.837835,2.2386661,
 0.7512447,0.8891544,-3.6254053,1.1514041,0.4470691,-4.5908807,1.014430
 2,-1.1852243,2.1383187,1.0741305,1.1261916,-0.932464,-7.0341043,1.9025
 837,-1.4063462,6.7486581,-0.5719589,-3.8346256,-0.5739532,-1.1284133,3
 .7098135,-0.0532826,-1.6760054,3.8540498,-1.04475,0.6559824,-1.565196,
 -0.8272184,-1.2017752,0.2804336,6.3866717,-0.8202198,1.6872786,2.33598
 08,-4.541937,-1.6584382,-1.6167504,-1.0233819,3.5390571,-4.5365214,0.1
 701188,0.5518122,-1.3079203,0.6526396,-1.1121848,-1.8933757,-1.0845679
 ,0.6907075,5.7484736,-2.8946027,0.9835833,2.0057515,-1.6421596,1.06773
 84,0.0699261,0.1184613,0.0961262,-1.0013589,1.7934825,-8.3449713,0.234
 5841,-0.7619481,-0.2146848,0.2327758,0.3059383,-0.6746011,-0.4546564,-
 1.4487024,-0.5533984,5.985934,-1.3317998,-0.1359003,3.3544486,-0.42631
 54,1.957811,-1.7069803,1.3953358,-1.030286,-0.7021456,2.2099329,-1.146
 2184,2.924281,-0.6327492,0.6402,4.6402862,-1.5228573,6.1187767,-0.7797
 382,1.7106832,-0.3143254,-0.0074944,-0.0890828,0.3694218,0.7481498,0.7
 482785,6.7709589,0.0653886,0.8358394,0.1571442,-0.201748,0.0005796,0.4
 891262,0.8358572,1.6264394,0.7360025,8.5165462,-0.4179682,-0.1184103,-
 3.4229037,-0.1221762,1.618349,-0.8107212,1.7309676,0.1283942,-0.293730
 8,-1.4264276,-0.603756,-3.7775222,-0.2177263,-0.213702,4.3349532,-0.58
 36892,-4.2443925,-7.5839755,-0.7477691,0.1513096,2.9733546,0.4816538,-
 1.57167,-0.0395418,-1.5168568,-0.5895397,0.5546148,1.4815605,0.2616951
 ,3.2078378,0.7302043,0.5052981,-3.8616728,-0.1106283,3.7518332,0.95252
 62,-1.3256939,1.036711,0.0143606,0.2598007,-0.2134986,-0.1680582,0.028
 351,-7.969579,0.0650334,-0.8580046,-0.2258406,0.1990867,0.1335356,-0.4
 853526,-0.3790198,-1.9152339,-0.7071799,-5.3249412,0.300924,0.4113936,
 -3.1260811,0.0636561,-2.0381502,0.8913705,-0.9467468,0.5432888,0.32678
 79,-1.9276636,0.6119057,-2.6042279,0.0445156,-0.5155989,-4.3083791,0.5
 096544,-6.0684412,-3.6952702,2.4037406,-0.8504344,-2.1197584,0.8548898
 ,-1.4916276,1.2252971,-1.8099365,2.3297459,0.9841831,-2.6209229,0.9776
 516,-1.4953678,1.4582145,-1.8475479,-3.2457669,2.423415,-5.1490448,3.4
 96203,2.0161528,2.3148538,0.6883768,0.4099346,-0.0893326,0.8195589,2.4
 49081,4.4385976,0.348627,0.6623357,0.4034496,0.4315676,0.3313617,0.452
 0348,0.5780659,1.7476789,0.6423204,-5.4402159,2.1281913,-0.777741,2.98
 50296,-0.5255723,-1.8189127,0.9856665,-1.8128044,0.6639933,-0.3610078,
 1.8007359,0.5315367,2.494899,-0.8644711,0.9021602,-3.8409462,1.6093076
 ,4.3333454\HyperPolar=-13.8500349,6.3088027,9.1858046,-18.7013309,4.83
 33618,4.5712313,-3.5685875,-21.339565,7.1738168,-5.2264124\PG=C01 [X(C
 5H10)]\NImag=0\\0.92635842,-0.12590930,0.70853780,0.07418220,0.0616102
 1,0.19451427,-0.57630260,0.16182885,-0.03937484,0.93309458,0.15299146,
 -0.19110730,0.00080048,-0.13464246,0.62932117,-0.04065585,0.00188975,-
 0.07127439,0.06838467,0.04274535,0.23456681,-0.20760996,-0.06573321,-0
 .02457628,-0.02473014,-0.01715928,-0.00609239,0.57628660,-0.06460528,-
 0.15507285,-0.01804443,0.00786362,0.01653296,0.00271084,-0.03261156,0.
 65206189,-0.02441278,-0.01818345,-0.09116902,-0.00246522,-0.00037343,0
 .00416020,-0.00839461,0.00265128,0.60539049,-0.03298708,-0.02350660,-0
 .00828174,-0.17927091,-0.06443573,-0.02050631,-0.00021904,0.00309678,-
 0.00158410,0.59243687,0.00559898,0.01192438,0.00146784,-0.06875264,-0.
 16326419,-0.01928565,0.00328976,-0.00182094,-0.00221755,-0.05003365,0.
 63786881,-0.00406278,-0.00211965,0.00575107,-0.02113207,-0.01875355,-0
 .09400239,-0.00155612,-0.00224133,0.01575805,-0.00908500,-0.00173646,0
 .60593197,-0.00452057,0.03665423,0.00381416,-0.11709591,0.03506337,0.0
 0177913,0.00124296,0.00039983,0.00103888,0.01107834,-0.02790153,-0.003
 30805,0.64571202,0.00935223,-0.00793177,-0.00110460,0.03347571,-0.2324
 4215,-0.01647864,-0.00051494,0.00173232,0.00116105,0.00418811,-0.02711
 305,-0.00415378,0.04878682,0.58350951,-0.00014337,0.00226059,0.0079510
 2,0.00154900,-0.01628296,-0.09246425,0.00090628,0.00127380,-0.00641899
 ,0.00134346,-0.00810908,0.00409422,0.01201012,0.00280434,0.60753452,-0
 .07359300,0.03855515,0.00238649,-0.00375613,0.03670818,0.00404401,0.00
 657534,-0.03127356,-0.00420244,-0.00004530,0.00250794,0.00157335,-0.00
 489080,-0.00039810,-0.00244236,0.08076602,0.04502535,-0.35098840,-0.03
 842562,0.00104337,-0.01323583,-0.00274727,0.00435247,-0.01557845,-0.00
 228580,-0.00246424,0.00021310,0.00115648,0.00170571,0.00224737,-0.0015
 5946,-0.04545549,0.37497003,0.00332437,-0.03922313,-0.05288896,-0.0011
 2574,0.00164869,0.00670436,0.00096168,-0.00667698,0.00304243,0.0008526
 1,0.00176935,-0.00949905,-0.00213741,-0.00181877,0.01392901,-0.0004175
 7,0.04430087,0.03706727,-0.01890865,0.01352070,-0.02708304,-0.00057408
 ,-0.00421084,-0.00137541,-0.11009814,0.04370903,-0.10413357,-0.0010835
 8,0.00022093,0.00287867,0.00013421,-0.00017235,-0.00114375,0.00104545,
 -0.00046849,0.00095808,0.12053318,-0.00998071,0.00993347,-0.01876314,-
 0.00096338,-0.00202912,-0.00047500,0.04296544,-0.09412483,0.07931378,-
 0.00045751,0.00027032,0.00168086,-0.00006465,-0.00066915,-0.00029255,0
 .00101063,0.00047707,0.00050480,-0.04528676,0.09489805,-0.00286286,0.0
 0158733,-0.00089963,0.00088432,-0.00158885,-0.00012443,-0.10292132,0.0
 8022741,-0.24827604,-0.00026415,0.00024793,0.00031544,0.00005725,-0.00
 008949,-0.00018086,-0.00029421,-0.00065190,0.00014554,0.11475137,-0.08
 966071,0.26764995,0.01187705,-0.03379112,-0.00330179,0.00165393,0.0009
 7802,0.00034353,-0.06864187,0.05067752,0.00616482,0.00003203,0.0000597
 8,0.00002218,-0.00182711,0.00018910,-0.00017919,-0.00566313,-0.0035377
 1,-0.00140928,-0.00321039,0.01555582,0.00350510,0.07280745,0.00455141,
 -0.01697903,-0.00174446,0.00121115,-0.00045989,0.00008016,0.04675778,-
 0.33961722,-0.03490446,-0.00019127,0.00022452,0.00002021,0.00033099,-0
 .00118158,-0.00010860,-0.00341987,-0.00032970,-0.00070271,0.00247177,-
 0.01115810,-0.00108501,-0.05610405,0.36900678,0.00225609,-0.00647048,-
 0.00173407,0.00037733,0.00005142,0.00007095,0.00559664,-0.03442132,-0.
 06335957,-0.00001421,0.00005116,-0.00007192,-0.00015862,-0.00012609,-0
 .00018877,-0.00139220,-0.00071723,0.00133453,-0.00497156,0.03215670,0.
 00645194,-0.00579530,0.03876839,0.05875106,-0.02474798,0.00603630,0.02
 328412,-0.00047363,-0.00458354,-0.00005027,-0.16992433,0.02114368,0.13
 801498,-0.00040693,0.00107785,-0.00280241,-0.00012441,-0.00048366,0.00
 105172,0.00113021,-0.00036726,-0.00083975,0.01287202,-0.00286294,-0.01
 262845,-0.00386998,0.00128976,0.00412841,0.18633040,-0.01388805,0.0046
 1247,0.01645635,-0.00066580,-0.00225637,-0.00037260,0.02057386,-0.0642
 5428,-0.02505962,-0.00009158,0.00077259,-0.00151304,-0.00009579,-0.000
 71420,0.00007444,0.00093331,0.00038797,-0.00017355,-0.00955969,0.00168
 554,0.01098609,0.02373939,-0.00201192,-0.02982874,-0.02096806,0.061097
 77,-0.00723077,0.00145845,0.01026069,-0.00127137,-0.00014191,0.0000023
 7,0.13661235,-0.02581136,-0.21832041,0.00007255,0.00014766,-0.00086348
 ,-0.00007744,-0.00018970,0.00012282,0.00081546,0.00064053,0.00014989,0
 .02039233,-0.00451218,-0.02497941,0.00080248,-0.00096684,-0.00203466,-
 0.15018563,0.02924850,0.23565304,-0.00131606,-0.00413320,-0.00046997,-
 0.02252820,0.00235196,0.02076672,-0.00018185,0.00096035,-0.00264244,-0
 .17976717,0.00561249,0.13987311,0.00039759,0.00140290,0.00004140,-0.00
 019867,-0.00036903,0.00155434,-0.00079449,-0.00047837,-0.00016000,-0.0
 0005875,-0.00020396,-0.00001346,0.00019888,0.00009652,0.00014185,0.196
 57134,-0.00092786,-0.00261414,-0.00057463,-0.01592710,0.00244699,0.019
 24028,-0.00028089,0.00103653,-0.00158594,0.00548498,-0.06157285,-0.006
 20812,-0.00002572,0.00096974,0.00044697,-0.00020863,0.00039330,0.00031
 562,-0.00052386,-0.00030932,-0.00008188,0.00005153,-0.00006535,0.00006
 031,0.00009272,-0.00003455,0.00009262,-0.00378409,0.05819580,-0.001052
 79,-0.00036690,0.00007689,-0.00661847,0.00006010,0.00963367,-0.0000604
 3,0.00015585,-0.00100567,0.13874112,-0.00663526,-0.21104056,0.00024307
 ,0.00022701,-0.00014231,-0.00018719,0.00000721,0.00038218,-0.00021044,
 -0.00006155,-0.00002823,0.00004381,0.00005146,0.00002336,0.00015632,0.
 00008545,0.00003791,-0.15325425,0.00849330,0.22777952,0.00095334,-0.00
 116440,-0.00000241,0.01203615,-0.02784162,-0.00237758,0.00022574,0.000
 08493,0.00005898,-0.09193873,0.09317732,0.00946088,-0.00483812,-0.0026
 7709,-0.00108285,-0.00098344,-0.00010663,-0.00020016,0.00004835,-0.000
 00058,0.00000660,0.00010679,0.00003699,0.00001943,0.00003492,-0.000007
 64,0.00000552,-0.00777174,0.02317510,0.00040469,0.09744749,0.00264955,
 0.00078229,0.00049745,0.01093691,-0.02130382,-0.00153465,-0.00042759,0
 .00067129,0.00006677,0.08803753,-0.31409149,-0.02610828,-0.00551541,-0
 .00160212,-0.00102784,-0.00078248,0.00170698,0.00007632,-0.00010105,-0
 .00008141,-0.00004052,0.00026974,0.00023960,0.00006905,-0.00012092,-0.
 00009450,-0.00000875,0.00026343,0.00148065,-0.00086638,-0.09859234,0.3
 4011425,0.00055044,0.00002735,-0.00032469,0.00324352,-0.00631439,-0.00
 193227,-0.00001531,0.00012994,-0.00013597,0.00871585,-0.02547476,-0.06
 173527,-0.00149427,-0.00067800,0.00051635,-0.00029813,0.00015962,0.000
 50151,-0.00006283,-0.00003882,-0.00002846,0.00005317,0.00004036,0.0000
 0504,0.00004396,0.00001590,-0.00000193,0.00846574,-0.02770671,-0.00120
 845,-0.00898211,0.02926703,0.05750846,-0.00141328,-0.00391194,-0.00108
 869,-0.01711495,0.00900793,-0.02509092,-0.00086221,0.00013266,0.002775
 45,-0.11732342,0.03463445,-0.11181350,0.00038178,0.00130839,0.00050097
 ,0.00016731,0.00009740,-0.00163607,0.00025055,0.00014286,-0.00004724,-
 0.00004292,-0.00017705,-0.00005392,-0.00080137,-0.00046617,-0.00017403
 ,0.01434606,-0.00733266,0.02198770,-0.00589101,0.00276894,-0.01022690,
 0.12750626,-0.00114306,-0.00247255,-0.00048391,-0.01109262,0.00847333,
 -0.02226316,-0.00071383,0.00049494,0.00180677,0.03430076,-0.07991602,0
 .05980499,0.00008835,0.00101462,-0.00008892,-0.00016727,0.00048430,-0.
 00028001,0.00014508,0.00001006,-0.00006155,0.00007871,-0.00002365,-0.0
 0005672,-0.00052743,-0.00028966,-0.00013501,-0.00102360,0.00028420,-0.
 00157598,0.01543890,-0.00727186,0.03101910,-0.03537909,0.07940210,0.00
 036012,-0.00142800,0.00003251,-0.00326900,0.00164760,-0.00180591,-0.00
 010918,0.00032231,0.00021627,-0.11074836,0.06028898,-0.25514114,-0.000
 08463,0.00045750,-0.00017138,0.00009034,0.00004126,-0.00007480,-0.0000
 6194,-0.00005418,-0.00005837,-0.00003709,-0.00011088,-0.00003417,-0.00
 013906,-0.00014219,-0.00004102,-0.01327503,0.00814016,-0.02489817,0.00
 299185,-0.00020694,0.00566334,0.12396193,-0.06812377,0.27563830,0.0012
 0754,0.00142909,0.00004730,-0.00827644,0.00557214,-0.00938466,0.000014
 67,0.00001353,-0.00062643,-0.00003731,-0.00085094,0.00029068,-0.115990
 96,0.03646816,-0.10897436,-0.00053795,0.00025214,0.00093732,-0.0002375
 7,0.00023548,0.00004699,0.00026066,0.00028474,0.00000148,-0.00006633,0
 .00002779,0.00008148,0.00012992,-0.00005631,0.00010072,-0.00004673,-0.
 00000751,0.00028268,0.00066482,-0.00003563,0.00019280,0.12155562,-0.00
 156308,-0.00482127,-0.00115174,0.01975699,-0.01098094,0.03207960,-0.00
 047165,-0.00065648,0.00077576,0.00067433,0.00136450,0.00043489,0.03654
 001,-0.08466644,0.07163823,0.00140422,-0.00011803,-0.00265582,0.000201
 76,0.00030084,0.00011067,0.00014629,0.00045862,0.00015403,0.00010202,0
 .00019000,0.00002338,-0.00004034,-0.00000459,-0.00005552,0.00008715,0.
 00053872,-0.00042283,-0.00084188,-0.00052895,-0.00069478,-0.04460926,0
 .08932843,0.00108867,-0.00057697,0.00000288,0.00213169,-0.00192175,0.0
 0779925,-0.00006583,-0.00012814,0.00015867,-0.00011197,0.00002351,-0.0
 0007063,-0.10801148,0.07055288,-0.25105304,0.00012961,0.00014461,-0.00
 064675,0.00002917,0.00001564,0.00000613,0.00005778,0.00012813,-0.00000
 470,-0.00010061,0.00003034,0.00002382,-0.00007051,-0.00000483,-0.00014
 583,0.00023762,0.00010354,0.00032470,0.00030329,0.00014798,0.00041186,
 0.11993112,-0.07731984,0.27204108,-0.00041034,-0.00120622,-0.00020474,
 0.01347831,0.00714233,0.00290065,-0.00194997,0.00057097,-0.00015189,-0
 .00047368,0.00211851,0.00015711,-0.23234273,-0.14161008,-0.04189307,0.
 00031616,-0.00023509,0.00001509,0.00009326,0.00013148,0.00001881,-0.00
 366658,0.00289280,-0.00012843,0.00006976,0.00013891,0.00004821,0.00017
 564,0.00018395,-0.00018924,0.00052190,0.00052022,0.00006322,0.00000752
 ,0.00006975,0.00017692,-0.01230814,-0.00919580,-0.00199117,0.25430926,
 -0.00085487,0.00110392,0.00007897,-0.03163538,-0.01751442,-0.00619816,
 0.00021552,-0.00100866,-0.00011294,0.00475345,-0.00623735,-0.00042594,
 -0.13724541,-0.17327194,-0.03348103,-0.00012089,0.00026938,0.00003614,
 -0.00001586,0.00060957,0.00005469,0.00152501,0.00141389,0.00028022,-0.
 00004775,0.00061329,0.00012382,0.00018561,0.00037001,0.00026968,-0.001
 66130,-0.00151650,-0.00051457,0.00010031,0.00036791,-0.00021176,0.0098
 3235,0.00869884,0.00052645,0.15232273,0.18369731,-0.00015381,0.0000356
 6,-0.00018159,-0.00272033,-0.00141849,-0.00219623,-0.00020341,-0.00006
 914,-0.00008131,0.00053906,-0.00075071,0.00070069,-0.04126039,-0.03401
 902,-0.06901535,0.00003164,0.00002206,-0.00007561,-0.00007011,0.000158
 69,-0.00002419,-0.00032670,0.00044882,0.00080223,0.00008872,0.00006099
 ,-0.00000442,-0.00049225,-0.00020864,0.00020905,-0.00025300,-0.0002456
 8,0.00055396,0.00048461,0.00026260,0.00037927,-0.02464702,-0.02104166,
 -0.00405229,0.04676696,0.03757212,0.06523176,0.00141318,0.00133168,0.0
 0066922,-0.01013999,0.00305808,0.00731466,-0.00012781,-0.00016249,0.00
 056035,0.00000589,-0.00075926,-0.00049604,-0.17731628,0.01068478,0.138
 45599,-0.00033207,0.00052748,-0.00083750,-0.00007013,0.00005318,-0.000
 09220,0.00024282,0.00026883,0.00014834,-0.00022123,0.00023298,-0.00003
 301,0.00079750,0.00007883,-0.00010462,0.00009509,0.00010099,-0.0003390
 3,0.00012486,-0.00003903,-0.00004967,0.01366821,-0.00219076,-0.0135573
 8,-0.01782037,0.00264650,0.02221605,0.18968033,-0.00129677,-0.00490705
 ,-0.00061878,0.02756278,-0.00218042,-0.02939085,-0.00024188,-0.0003962
 0,-0.00105221,0.00064465,0.00137766,0.00016271,0.01127920,-0.05988117,
 -0.01754793,0.00070685,-0.00089910,0.00287919,0.00006962,0.00018700,0.
 00004579,0.00016197,0.00048303,0.00002930,0.00021924,0.00029584,0.0000
 3080,-0.00084067,-0.00057642,0.00021154,0.00005121,0.00042791,0.000490
 78,-0.00008414,-0.00002878,0.00007469,-0.00855577,0.00089674,0.0082784
 6,-0.01384447,0.00240475,0.01919239,-0.01583180,0.06279622,-0.00118688
 ,-0.00050076,-0.00011698,0.00140652,-0.00015830,0.00086227,-0.00008209
 ,-0.00007872,0.00004087,0.00033120,0.00021304,-0.00012699,0.13758968,-
 0.01654470,-0.21451298,0.00016321,-0.00008535,-0.00007156,0.00010303,0
 .00002766,0.00003061,0.00005648,0.00008544,-0.00001126,-0.00002207,0.0
 0013169,-0.00000521,-0.00046526,-0.00041851,0.00032664,-0.00028747,-0.
 00004112,0.00029368,0.00011734,0.00002759,-0.00011658,0.02171990,-0.00
 187438,-0.02479512,-0.00558844,0.00200231,0.00775403,-0.15385516,0.017
 21412,0.23044858\\0.00000002,0.,0.,0.00000002,0.,0.,0.,0.,0.,0.,-0.000
 00001,0.,-0.00000001,0.00000002,-0.00000001,0.,0.,0.,0.,0.,0.,0.000000
 01,-0.00000001,0.,0.,0.,0.,0.,0.,0.,0.,0.,0.,0.,0.,0.,0.,0.,0.,0.,0.,0
 .,0.,0.,0.\\\@


 WE'RE IN THE POSITION OF A VISITOR FROM ANOTHER
 DIMENSION WHO COMES TO EARTH AND SEES A CHESS MATCH.
 ASSUMING HE KNOWS IT'S A GAME, HE'S GOT TWO PROBLEMS:
 FIRST, FIGURE OUT THE RULES, AND SECOND, FIGURE OUT HOW TO WIN.
 NINETY PERCENT OF SCIENCE (INCLUDING VIRTUALLY ALL OF CHEMISRY)
 IS IN THAT SECOND CATEGORY.  THEY'RE TRYING TO APPLY
 THE LAWS THAT ARE ALREADY KNOWN.

                     -- SHELDON GLASHOW, 1979
 Job cpu time:  0 days  0 hours  5 minutes 43.0 seconds.
 File lengths (MBytes):  RWF=     81 Int=      0 D2E=      0 Chk=      2 Scr=      1
 Normal termination of Gaussian 09 at Mon Apr 30 11:36:47 2018.
