 Entering Gaussian System, Link 0=g09
 Initial command:
 /shared/apps/gaussian/G09_LINUX_LINDA/g09/l1.exe /home/harms.n/Code/AutoTST/ipython_notebooks/Gau-43384.inp -scrdir=/home/harms.n/Code/AutoTST/ipython_notebooks/
 Entering Link 1 = /shared/apps/gaussian/G09_LINUX_LINDA/g09/l1.exe PID=     43385.
  
 Copyright (c) 1988,1990,1992,1993,1995,1998,2003,2009,2010,
            Gaussian, Inc.  All Rights Reserved.
  
 This is part of the Gaussian(R) 09 program.  It is based on
 the Gaussian(R) 03 system (copyright 2003, Gaussian, Inc.),
 the Gaussian(R) 98 system (copyright 1998, Gaussian, Inc.),
 the Gaussian(R) 94 system (copyright 1995, Gaussian, Inc.),
 the Gaussian 92(TM) system (copyright 1992, Gaussian, Inc.),
 the Gaussian 90(TM) system (copyright 1990, Gaussian, Inc.),
 the Gaussian 88(TM) system (copyright 1988, Gaussian, Inc.),
 the Gaussian 86(TM) system (copyright 1986, Carnegie Mellon
 University), and the Gaussian 82(TM) system (copyright 1983,
 Carnegie Mellon University). Gaussian is a federally registered
 trademark of Gaussian, Inc.
  
 This software contains proprietary and confidential information,
 including trade secrets, belonging to Gaussian, Inc.
  
 This software is provided under written license and may be
 used, copied, transmitted, or stored only in accord with that
 written license.
  
 The following legend is applicable only to US Government
 contracts under FAR:
  
                    RESTRICTED RIGHTS LEGEND
  
 Use, reproduction and disclosure by the US Government is
 subject to restrictions as set forth in subparagraphs (a)
 and (c) of the Commercial Computer Software - Restricted
 Rights clause in FAR 52.227-19.
  
 Gaussian, Inc.
 340 Quinnipiac St., Bldg. 40, Wallingford CT 06492
  
  
 ---------------------------------------------------------------
 Warning -- This program may not be used in any manner that
 competes with the business of Gaussian, Inc. or will provide
 assistance to any competitor of Gaussian, Inc.  The licensee
 of this program is prohibited from giving any competitor of
 Gaussian, Inc. access to this program.  By using this program,
 the user acknowledges that Gaussian, Inc. is engaged in the
 business of creating and licensing software in the field of
 computational chemistry and represents and warrants to the
 licensee that it is not a competitor of Gaussian, Inc. and that
 it will not use this program in any manner prohibited above.
 ---------------------------------------------------------------
  

 Cite this work as:
 Gaussian 09, Revision B.01,
 M. J. Frisch, G. W. Trucks, H. B. Schlegel, G. E. Scuseria, 
 M. A. Robb, J. R. Cheeseman, G. Scalmani, V. Barone, B. Mennucci, 
 G. A. Petersson, H. Nakatsuji, M. Caricato, X. Li, H. P. Hratchian, 
 A. F. Izmaylov, J. Bloino, G. Zheng, J. L. Sonnenberg, M. Hada, 
 M. Ehara, K. Toyota, R. Fukuda, J. Hasegawa, M. Ishida, T. Nakajima, 
 Y. Honda, O. Kitao, H. Nakai, T. Vreven, J. A. Montgomery, Jr., 
 J. E. Peralta, F. Ogliaro, M. Bearpark, J. J. Heyd, E. Brothers, 
 K. N. Kudin, V. N. Staroverov, T. Keith, R. Kobayashi, J. Normand, 
 K. Raghavachari, A. Rendell, J. C. Burant, S. S. Iyengar, J. Tomasi, 
 M. Cossi, N. Rega, J. M. Millam, M. Klene, J. E. Knox, J. B. Cross, 
 V. Bakken, C. Adamo, J. Jaramillo, R. Gomperts, R. E. Stratmann, 
 O. Yazyev, A. J. Austin, R. Cammi, C. Pomelli, J. W. Ochterski, 
 R. L. Martin, K. Morokuma, V. G. Zakrzewski, G. A. Voth, 
 P. Salvador, J. J. Dannenberg, S. Dapprich, A. D. Daniels, 
 O. Farkas, J. B. Foresman, J. V. Ortiz, J. Cioslowski, 
 and D. J. Fox, Gaussian, Inc., Wallingford CT, 2010.
 
 ******************************************
 Gaussian 09:  EM64L-G09RevB.01 12-Aug-2010
                30-Apr-2018 
 ******************************************
 %nprocshared=20
 Will use up to   20 processors via shared memory.
 %mem=5GB
 ---------------------------------------------------
 #p hf/6-31g* opt=(verytight,gdiis) freq IOP(2/16=3)
 ---------------------------------------------------

 Warning!  Use of Opt=GDIIS is deprecated since it is seldom a good choice.

 1/7=1,18=20,19=11,38=1/1,3;
 2/9=110,12=2,16=3,17=6,18=5,40=1/2;
 3/5=1,6=6,7=1,11=9,16=1,25=1,30=1,71=1/1,2,3;
 4//1;
 5/5=2,38=5/2;
 6/7=2,8=2,9=2,10=2,28=1/1;
 7//1,2,3,16;
 1/7=1,18=20,19=11/3(2);
 2/9=110,16=3/2;
 99//99;
 2/9=110,16=3/2;
 3/5=1,6=6,7=1,11=9,16=1,25=1,30=1,71=1/1,2,3;
 4/5=5,16=3/1;
 5/5=2,38=5/2;
 7//1,2,3,16;
 1/7=1,18=20,19=11/3(-5);
 2/9=110,16=3/2;
 6/7=2,8=2,9=2,10=2,19=2,28=1/1;
 99/9=1/99;
 Leave Link    1 at Mon Apr 30 11:36:47 2018, MaxMem=  671088640 cpu:       1.0
 (Enter /shared/apps/gaussian/G09_LINUX_LINDA/g09/l101.exe)
 ------------------------------
 Gaussian input prepared by ASE
 ------------------------------
 Symbolic Z-matrix:
 Charge =  0 Multiplicity = 2
 O                     1.01     -0.1639    0. 
 O                    -0.1631    0.4452    0. 
 H                    -0.8469   -0.2813    0. 
 
 NAtoms=      3 NQM=      3 NQMF=      0 NMic=      0 NMicF=      0 NTot=      3.
                    Isotopes and Nuclear Properties:
 (Nuclear quadrupole moments (NQMom) in fm**2, nuclear magnetic moments (NMagM)
  in nuclear magnetons)

  Atom         1           2           3
 IAtWgt=          16          16           1
 AtmWgt=  15.9949146  15.9949146   1.0078250
 NucSpn=           0           0           1
 AtZEff=   0.0000000   0.0000000   0.0000000
 NQMom=    0.0000000   0.0000000   0.0000000
 NMagM=    0.0000000   0.0000000   2.7928460
 Leave Link  101 at Mon Apr 30 11:36:48 2018, MaxMem=  671088640 cpu:       1.1
 (Enter /shared/apps/gaussian/G09_LINUX_LINDA/g09/l103.exe)

 GradGradGradGradGradGradGradGradGradGradGradGradGradGradGradGradGradGrad
 Berny optimization.
 Initialization pass.
                           ----------------------------
                           !    Initial Parameters    !
                           ! (Angstroms and Degrees)  !
 --------------------------                            --------------------------
 ! Name  Definition              Value          Derivative Info.                !
 --------------------------------------------------------------------------------
 ! R1    R(1,2)                  1.3218         estimate D2E/DX2                !
 ! R2    R(2,3)                  0.9977         estimate D2E/DX2                !
 ! A1    A(1,2,3)              105.8264         estimate D2E/DX2                !
 --------------------------------------------------------------------------------
 Trust Radius=3.00D-01 FncErr=1.00D-07 GrdErr=1.00D-07
 Number of steps in this run=     20 maximum allowed number of steps=    100.
 GradGradGradGradGradGradGradGradGradGradGradGradGradGradGradGradGradGrad

 Leave Link  103 at Mon Apr 30 11:36:48 2018, MaxMem=  671088640 cpu:       0.2
 (Enter /shared/apps/gaussian/G09_LINUX_LINDA/g09/l202.exe)
                          Input orientation:                          
 ---------------------------------------------------------------------
 Center     Atomic      Atomic             Coordinates (Angstroms)
 Number     Number       Type             X           Y           Z
 ---------------------------------------------------------------------
      1          8           0        1.010000   -0.163900    0.000000
      2          8           0       -0.163100    0.445200    0.000000
      3          1           0       -0.846900   -0.281300    0.000000
 ---------------------------------------------------------------------
                    Distance matrix (angstroms):
                    1          2          3
     1  O    0.000000
     2  O    1.321804   0.000000
     3  H    1.860608   0.997690   0.000000
 Stoichiometry    HO2(2)
 Framework group  CS[SG(HO2)]
 Deg. of freedom     3
 Full point group                 CS      NOp   2
 Largest Abelian subgroup         CS      NOp   2
 Largest concise Abelian subgroup C1      NOp   1
                         Standard orientation:                         
 ---------------------------------------------------------------------
 Center     Atomic      Atomic             Coordinates (Angstroms)
 Number     Number       Type             X           Y           Z
 ---------------------------------------------------------------------
      1          8           0        0.056463    0.715784    0.000000
      2          8           0        0.056463   -0.606020    0.000000
      3          1           0       -0.903407   -0.878114    0.000000
 ---------------------------------------------------------------------
 Rotational constants (GHZ):    597.7804800     33.9678425     32.1414596
 Leave Link  202 at Mon Apr 30 11:36:48 2018, MaxMem=  671088640 cpu:       1.1
 (Enter /shared/apps/gaussian/G09_LINUX_LINDA/g09/l301.exe)
 Standard basis: 6-31G(d) (6D, 7F)
 Ernie: Thresh=  0.10000D-02 Tol=  0.10000D-05 Strict=F.
 There are    24 symmetry adapted basis functions of A'  symmetry.
 There are     8 symmetry adapted basis functions of A"  symmetry.
 Integral buffers will be    131072 words long.
 Raffenetti 2 integral format.
 Two-electron integral symmetry is turned on.
    32 basis functions,    60 primitive gaussians,    32 cartesian basis functions
     9 alpha electrons        8 beta electrons
       nuclear repulsion energy        32.1405642405 Hartrees.
 IExCor=    0 DFT=F Ex=HF Corr=None ExCW=0 ScaHFX=  1.000000
 ScaDFX=  1.000000  1.000000  1.000000  1.000000 ScalE2=  1.000000  1.000000
 IRadAn=      0 IRanWt=     -1 IRanGd=            0 ICorTp=0
 NAtoms=    3 NActive=    3 NUniq=    3 SFac= 1.00D+00 NAtFMM=   50 NAOKFM=F Big=F
 Leave Link  301 at Mon Apr 30 11:36:48 2018, MaxMem=  671088640 cpu:       1.0
 (Enter /shared/apps/gaussian/G09_LINUX_LINDA/g09/l302.exe)
 NPDir=0 NMtPBC=     1 NCelOv=     1 NCel=       1 NClECP=     1 NCelD=      1
         NCelK=      1 NCelE2=     1 NClLst=     1 CellRange=     0.0.
 One-electron integrals computed using PRISM.
 NBasis=    32 RedAO= T  NBF=    24     8
 NBsUse=    32 1.00D-06 NBFU=    24     8
 Leave Link  302 at Mon Apr 30 11:36:49 2018, MaxMem=  671088640 cpu:       7.2
 (Enter /shared/apps/gaussian/G09_LINUX_LINDA/g09/l303.exe)
 DipDrv:  MaxL=1.
 Leave Link  303 at Mon Apr 30 11:36:49 2018, MaxMem=  671088640 cpu:       1.5
 (Enter /shared/apps/gaussian/G09_LINUX_LINDA/g09/l401.exe)
 Harris functional with IExCor=  205 diagonalized for initial guess.
 ExpMin= 1.61D-01 ExpMax= 5.48D+03 ExpMxC= 8.25D+02 IAcc=1 IRadAn=         1 AccDes= 0.00D+00
 HarFok:  IExCor=  205 AccDes= 0.00D+00 IRadAn=         1 IDoV= 1
 ScaDFX=  1.000000  1.000000  1.000000  1.000000
 FoFCou: FMM=F IPFlag=           0 FMFlag=      100000 FMFlg1=           0
         NFxFlg=           0 DoJE=T BraDBF=F KetDBF=T FulRan=T
         Omega=  0.000000  0.000000  1.000000  0.000000  0.000000 ICntrl=     500 IOpCl=  0
         NMat0=    1 NMatS0=    1 NMatT0=    0 NMatD0=    1 NMtDS0=    0 NMtDT0=    0
         I1Cent=           4 NGrid=           0.
 Petite list used in FoFCou.
 Harris En= -150.168654212271    
 Initial guess orbital symmetries:
 Alpha Orbitals:
       Occupied  (A') (A') (A') (A') (A') (A') (A") (A') (A")
       Virtual   (A') (A') (A') (A') (A') (A") (A') (A") (A') (A')
                 (A') (A") (A') (A") (A') (A") (A') (A') (A') (A")
                 (A') (A') (A')
 Beta  Orbitals:
       Occupied  (A') (A') (A') (A') (A') (A') (A") (A')
       Virtual   (A") (A') (A') (A') (A') (A') (A") (A') (A") (A')
                 (A') (A') (A") (A') (A") (A') (A") (A') (A') (A')
                 (A") (A') (A') (A')
 The electronic state of the initial guess is 2-A".
 Initial guess <Sx>= 0.0000 <Sy>= 0.0000 <Sz>= 0.5000 <S**2>= 0.7500 S= 0.5000
 Leave Link  401 at Mon Apr 30 11:36:51 2018, MaxMem=  671088640 cpu:      13.0
 (Enter /shared/apps/gaussian/G09_LINUX_LINDA/g09/l502.exe)
 UHF open shell SCF:
 Requested convergence on RMS density matrix=1.00D-08 within 128 cycles.
 Requested convergence on MAX density matrix=1.00D-06.
 Requested convergence on             energy=1.00D-06.
 No special actions if energy rises.
 Using DIIS extrapolation, IDIIS=  1040.
 Integral symmetry usage will be decided dynamically.
 Keep R1 and R2 ints in memory in canonical form, NReq=1121441.
 IEnd=       22108 IEndB=       22108 NGot=   671088640 MDV=   670804889
 LenX=   670804889 LenY=   670803424
 Symmetry not used in FoFDir.
 MinBra= 0 MaxBra= 2 Meth= 1.
 IRaf=       0 NMat=   1 IRICut=       1 DoRegI=T DoRafI=F ISym2E= 0 JSym2E=0.

 Cycle   1  Pass 1  IDiag  1:
 E= -150.112321671819    
 DIIS: error= 5.18D-02 at cycle   1 NSaved=   1.
 NSaved= 1 IEnMin= 1 EnMin= -150.112321671819     IErMin= 1 ErrMin= 5.18D-02
 ErrMax= 5.18D-02 EMaxC= 1.00D-01 BMatC= 3.95D-01 BMatP= 3.95D-01
 IDIUse=3 WtCom= 4.82D-01 WtEn= 5.18D-01
 Coeff-Com:  0.100D+01
 Coeff-En:   0.100D+01
 Coeff:      0.100D+01
 Gap=     0.653 Goal=   None    Shift=    0.000
 Gap=     0.556 Goal=   None    Shift=    0.000
 GapD=    0.556 DampG=2.000 DampE=0.500 DampFc=1.0000 IDamp=-1.
 RMSDP=5.62D-03 MaxDP=7.51D-02              OVMax= 1.35D-01

 Cycle   2  Pass 1  IDiag  1:
 E= -150.152456012920     Delta-E=       -0.040134341101 Rises=F Damp=F
 DIIS: error= 1.78D-02 at cycle   2 NSaved=   2.
 NSaved= 2 IEnMin= 2 EnMin= -150.152456012920     IErMin= 2 ErrMin= 1.78D-02
 ErrMax= 1.78D-02 EMaxC= 1.00D-01 BMatC= 4.06D-02 BMatP= 3.95D-01
 IDIUse=3 WtCom= 8.22D-01 WtEn= 1.78D-01
 Coeff-Com:  0.849D-01 0.915D+00
 Coeff-En:   0.000D+00 0.100D+01
 Coeff:      0.698D-01 0.930D+00
 Gap=     0.719 Goal=   None    Shift=    0.000
 Gap=     0.594 Goal=   None    Shift=    0.000
 RMSDP=2.84D-03 MaxDP=3.90D-02 DE=-4.01D-02 OVMax= 3.11D-02

 Cycle   3  Pass 1  IDiag  1:
 E= -150.159998298298     Delta-E=       -0.007542285378 Rises=F Damp=F
 DIIS: error= 2.14D-02 at cycle   3 NSaved=   3.
 NSaved= 3 IEnMin= 3 EnMin= -150.159998298298     IErMin= 2 ErrMin= 1.78D-02
 ErrMax= 2.14D-02 EMaxC= 1.00D-01 BMatC= 1.12D-02 BMatP= 4.06D-02
 IDIUse=3 WtCom= 7.86D-01 WtEn= 2.14D-01
 Coeff-Com: -0.309D-01 0.303D+00 0.728D+00
 Coeff-En:   0.000D+00 0.000D+00 0.100D+01
 Coeff:     -0.243D-01 0.238D+00 0.786D+00
 Gap=     0.693 Goal=   None    Shift=    0.000
 Gap=     0.593 Goal=   None    Shift=    0.000
 RMSDP=1.39D-03 MaxDP=2.39D-02 DE=-7.54D-03 OVMax= 5.43D-02

 Cycle   4  Pass 1  IDiag  1:
 E= -150.163974118418     Delta-E=       -0.003975820120 Rises=F Damp=F
 DIIS: error= 7.66D-03 at cycle   4 NSaved=   4.
 NSaved= 4 IEnMin= 4 EnMin= -150.163974118418     IErMin= 4 ErrMin= 7.66D-03
 ErrMax= 7.66D-03 EMaxC= 1.00D-01 BMatC= 3.69D-03 BMatP= 1.12D-02
 IDIUse=3 WtCom= 9.23D-01 WtEn= 7.66D-02
 Coeff-Com: -0.115D-02-0.133D+00 0.183D+00 0.952D+00
 Coeff-En:   0.000D+00 0.000D+00 0.000D+00 0.100D+01
 Coeff:     -0.106D-02-0.123D+00 0.169D+00 0.955D+00
 Gap=     0.700 Goal=   None    Shift=    0.000
 Gap=     0.601 Goal=   None    Shift=    0.000
 RMSDP=1.02D-03 MaxDP=1.15D-02 DE=-3.98D-03 OVMax= 3.21D-02

 Cycle   5  Pass 1  IDiag  1:
 E= -150.166077461551     Delta-E=       -0.002103343134 Rises=F Damp=F
 DIIS: error= 7.93D-03 at cycle   5 NSaved=   5.
 NSaved= 5 IEnMin= 5 EnMin= -150.166077461551     IErMin= 4 ErrMin= 7.66D-03
 ErrMax= 7.93D-03 EMaxC= 1.00D-01 BMatC= 1.08D-03 BMatP= 3.69D-03
 IDIUse=3 WtCom= 9.21D-01 WtEn= 7.93D-02
 Coeff-Com:  0.101D-01-0.705D-01-0.196D+00-0.380D+00 0.164D+01
 Coeff-En:   0.000D+00 0.000D+00 0.000D+00 0.000D+00 0.100D+01
 Coeff:      0.927D-02-0.649D-01-0.180D+00-0.350D+00 0.159D+01
 Gap=     0.709 Goal=   None    Shift=    0.000
 Gap=     0.610 Goal=   None    Shift=    0.000
 RMSDP=1.27D-03 MaxDP=2.30D-02 DE=-2.10D-03 OVMax= 4.85D-02

 Cycle   6  Pass 1  IDiag  1:
 E= -150.167780093403     Delta-E=       -0.001702631852 Rises=F Damp=F
 DIIS: error= 4.31D-03 at cycle   6 NSaved=   6.
 NSaved= 6 IEnMin= 6 EnMin= -150.167780093403     IErMin= 6 ErrMin= 4.31D-03
 ErrMax= 4.31D-03 EMaxC= 1.00D-01 BMatC= 3.71D-04 BMatP= 1.08D-03
 IDIUse=3 WtCom= 9.57D-01 WtEn= 4.31D-02
 Coeff-Com: -0.590D-02 0.157D+00 0.129D+00-0.333D+00-0.103D+01 0.209D+01
 Coeff-En:   0.000D+00 0.000D+00 0.000D+00 0.000D+00 0.000D+00 0.100D+01
 Coeff:     -0.565D-02 0.151D+00 0.123D+00-0.319D+00-0.990D+00 0.204D+01
 Gap=     0.711 Goal=   None    Shift=    0.000
 Gap=     0.614 Goal=   None    Shift=    0.000
 RMSDP=1.10D-03 MaxDP=2.15D-02 DE=-1.70D-03 OVMax= 4.06D-02

 Cycle   7  Pass 1  IDiag  1:
 E= -150.168458318736     Delta-E=       -0.000678225333 Rises=F Damp=F
 DIIS: error= 8.91D-04 at cycle   7 NSaved=   7.
 NSaved= 7 IEnMin= 7 EnMin= -150.168458318736     IErMin= 7 ErrMin= 8.91D-04
 ErrMax= 8.91D-04 EMaxC= 1.00D-01 BMatC= 3.87D-05 BMatP= 3.71D-04
 IDIUse=3 WtCom= 9.91D-01 WtEn= 8.91D-03
 Coeff-Com: -0.129D-02-0.112D-01 0.261D-01 0.142D+00-0.155D+00-0.353D+00
 Coeff-Com:  0.135D+01
 Coeff-En:   0.000D+00 0.000D+00 0.000D+00 0.000D+00 0.000D+00 0.000D+00
 Coeff-En:   0.100D+01
 Coeff:     -0.127D-02-0.111D-01 0.259D-01 0.140D+00-0.153D+00-0.350D+00
 Coeff:      0.135D+01
 Gap=     0.711 Goal=   None    Shift=    0.000
 Gap=     0.616 Goal=   None    Shift=    0.000
 RMSDP=2.87D-04 MaxDP=5.66D-03 DE=-6.78D-04 OVMax= 9.26D-03

 Cycle   8  Pass 1  IDiag  1:
 E= -150.168508264774     Delta-E=       -0.000049946038 Rises=F Damp=F
 DIIS: error= 3.68D-04 at cycle   8 NSaved=   8.
 NSaved= 8 IEnMin= 8 EnMin= -150.168508264774     IErMin= 8 ErrMin= 3.68D-04
 ErrMax= 3.68D-04 EMaxC= 1.00D-01 BMatC= 8.93D-06 BMatP= 3.87D-05
 IDIUse=3 WtCom= 9.96D-01 WtEn= 3.68D-03
 Coeff-Com:  0.150D-02-0.141D-01-0.275D-01-0.458D-01 0.228D+00-0.684D-01
 Coeff-Com: -0.834D+00 0.176D+01
 Coeff-En:   0.000D+00 0.000D+00 0.000D+00 0.000D+00 0.000D+00 0.000D+00
 Coeff-En:   0.000D+00 0.100D+01
 Coeff:      0.149D-02-0.141D-01-0.274D-01-0.456D-01 0.227D+00-0.682D-01
 Coeff:     -0.831D+00 0.176D+01
 Gap=     0.711 Goal=   None    Shift=    0.000
 Gap=     0.617 Goal=   None    Shift=    0.000
 RMSDP=1.29D-04 MaxDP=1.73D-03 DE=-4.99D-05 OVMax= 2.38D-03

 Cycle   9  Pass 1  IDiag  1:
 E= -150.168519127437     Delta-E=       -0.000010862663 Rises=F Damp=F
 DIIS: error= 2.33D-04 at cycle   9 NSaved=   9.
 NSaved= 9 IEnMin= 9 EnMin= -150.168519127437     IErMin= 9 ErrMin= 2.33D-04
 ErrMax= 2.33D-04 EMaxC= 1.00D-01 BMatC= 2.85D-06 BMatP= 8.93D-06
 IDIUse=3 WtCom= 9.98D-01 WtEn= 2.33D-03
 Coeff-Com: -0.131D-02 0.205D-01 0.228D-01 0.159D-01-0.215D+00 0.181D+00
 Coeff-Com:  0.583D+00-0.219D+01 0.258D+01
 Coeff-En:   0.000D+00 0.000D+00 0.000D+00 0.000D+00 0.000D+00 0.000D+00
 Coeff-En:   0.000D+00 0.000D+00 0.100D+01
 Coeff:     -0.130D-02 0.205D-01 0.227D-01 0.158D-01-0.214D+00 0.180D+00
 Coeff:      0.582D+00-0.218D+01 0.258D+01
 Gap=     0.711 Goal=   None    Shift=    0.000
 Gap=     0.617 Goal=   None    Shift=    0.000
 RMSDP=1.23D-04 MaxDP=1.46D-03 DE=-1.09D-05 OVMax= 2.20D-03

 Cycle  10  Pass 1  IDiag  1:
 E= -150.168523951900     Delta-E=       -0.000004824463 Rises=F Damp=F
 DIIS: error= 6.33D-05 at cycle  10 NSaved=  10.
 NSaved=10 IEnMin=10 EnMin= -150.168523951900     IErMin=10 ErrMin= 6.33D-05
 ErrMax= 6.33D-05 EMaxC= 1.00D-01 BMatC= 2.83D-07 BMatP= 2.85D-06
 IDIUse=1 WtCom= 1.00D+00 WtEn= 0.00D+00
 Coeff-Com:  0.504D-03-0.883D-02-0.786D-02-0.732D-02 0.762D-01-0.745D-01
 Coeff-Com: -0.200D+00 0.887D+00-0.134D+01 0.168D+01
 Coeff:      0.504D-03-0.883D-02-0.786D-02-0.732D-02 0.762D-01-0.745D-01
 Coeff:     -0.200D+00 0.887D+00-0.134D+01 0.168D+01
 Gap=     0.711 Goal=   None    Shift=    0.000
 Gap=     0.617 Goal=   None    Shift=    0.000
 RMSDP=4.07D-05 MaxDP=5.38D-04 DE=-4.82D-06 OVMax= 7.35D-04

 Cycle  11  Pass 1  IDiag  1:
 E= -150.168524299549     Delta-E=       -0.000000347649 Rises=F Damp=F
 DIIS: error= 2.37D-05 at cycle  11 NSaved=  11.
 NSaved=11 IEnMin=11 EnMin= -150.168524299549     IErMin=11 ErrMin= 2.37D-05
 ErrMax= 2.37D-05 EMaxC= 1.00D-01 BMatC= 6.80D-08 BMatP= 2.83D-07
 IDIUse=1 WtCom= 1.00D+00 WtEn= 0.00D+00
 Coeff-Com: -0.992D-04 0.213D-02 0.162D-03 0.475D-02-0.863D-02 0.144D-01
 Coeff-Com:  0.271D-01-0.162D+00 0.342D+00-0.841D+00 0.162D+01
 Coeff:     -0.992D-04 0.213D-02 0.162D-03 0.475D-02-0.863D-02 0.144D-01
 Coeff:      0.271D-01-0.162D+00 0.342D+00-0.841D+00 0.162D+01
 Gap=     0.711 Goal=   None    Shift=    0.000
 Gap=     0.617 Goal=   None    Shift=    0.000
 RMSDP=1.50D-05 MaxDP=2.34D-04 DE=-3.48D-07 OVMax= 4.77D-04

 Cycle  12  Pass 1  IDiag  1:
 E= -150.168524342023     Delta-E=       -0.000000042473 Rises=F Damp=F
 DIIS: error= 1.36D-05 at cycle  12 NSaved=  12.
 NSaved=12 IEnMin=12 EnMin= -150.168524342023     IErMin=12 ErrMin= 1.36D-05
 ErrMax= 1.36D-05 EMaxC= 1.00D-01 BMatC= 1.99D-08 BMatP= 6.80D-08
 IDIUse=1 WtCom= 1.00D+00 WtEn= 0.00D+00
 Coeff-Com: -0.380D-04 0.293D-03 0.203D-02-0.273D-02-0.131D-01 0.640D-02
 Coeff-Com:  0.279D-01-0.856D-01 0.497D-01 0.247D+00-0.883D+00 0.165D+01
 Coeff:     -0.380D-04 0.293D-03 0.203D-02-0.273D-02-0.131D-01 0.640D-02
 Coeff:      0.279D-01-0.856D-01 0.497D-01 0.247D+00-0.883D+00 0.165D+01
 Gap=     0.711 Goal=   None    Shift=    0.000
 Gap=     0.617 Goal=   None    Shift=    0.000
 RMSDP=9.14D-06 MaxDP=1.37D-04 DE=-4.25D-08 OVMax= 2.78D-04

 Cycle  13  Pass 1  IDiag  1:
 E= -150.168524353777     Delta-E=       -0.000000011755 Rises=F Damp=F
 DIIS: error= 7.70D-06 at cycle  13 NSaved=  13.
 NSaved=13 IEnMin=13 EnMin= -150.168524353777     IErMin=13 ErrMin= 7.70D-06
 ErrMax= 7.70D-06 EMaxC= 1.00D-01 BMatC= 7.60D-09 BMatP= 1.99D-08
 IDIUse=1 WtCom= 1.00D+00 WtEn= 0.00D+00
 Coeff-Com:  0.471D-04-0.811D-03-0.875D-03-0.411D-03 0.794D-02-0.756D-02
 Coeff-Com: -0.179D-01 0.834D-01-0.133D+00 0.203D+00-0.362D+00-0.128D+00
 Coeff-Com:  0.136D+01
 Coeff:      0.471D-04-0.811D-03-0.875D-03-0.411D-03 0.794D-02-0.756D-02
 Coeff:     -0.179D-01 0.834D-01-0.133D+00 0.203D+00-0.362D+00-0.128D+00
 Coeff:      0.136D+01
 Gap=     0.711 Goal=   None    Shift=    0.000
 Gap=     0.617 Goal=   None    Shift=    0.000
 RMSDP=3.31D-06 MaxDP=4.87D-05 DE=-1.18D-08 OVMax= 9.65D-05

 Cycle  14  Pass 1  IDiag  1:
 E= -150.168524359170     Delta-E=       -0.000000005393 Rises=F Damp=F
 DIIS: error= 1.17D-06 at cycle  14 NSaved=  14.
 NSaved=14 IEnMin=14 EnMin= -150.168524359170     IErMin=14 ErrMin= 1.17D-06
 ErrMax= 1.17D-06 EMaxC= 1.00D-01 BMatC= 1.65D-10 BMatP= 7.60D-09
 IDIUse=1 WtCom= 1.00D+00 WtEn= 0.00D+00
 Coeff-Com: -0.404D-05 0.911D-04 0.803D-04-0.576D-04-0.601D-03 0.107D-02
 Coeff-Com:  0.203D-03-0.620D-02 0.158D-01-0.462D-01 0.144D+00-0.367D-01
 Coeff-Com: -0.687D+00 0.162D+01
 Coeff:     -0.404D-05 0.911D-04 0.803D-04-0.576D-04-0.601D-03 0.107D-02
 Coeff:      0.203D-03-0.620D-02 0.158D-01-0.462D-01 0.144D+00-0.367D-01
 Coeff:     -0.687D+00 0.162D+01
 Gap=     0.711 Goal=   None    Shift=    0.000
 Gap=     0.617 Goal=   None    Shift=    0.000
 RMSDP=7.22D-07 MaxDP=8.05D-06 DE=-5.39D-09 OVMax= 1.56D-05

 Cycle  15  Pass 1  IDiag  1:
 E= -150.168524359333     Delta-E=       -0.000000000163 Rises=F Damp=F
 DIIS: error= 2.44D-07 at cycle  15 NSaved=  15.
 NSaved=15 IEnMin=15 EnMin= -150.168524359333     IErMin=15 ErrMin= 2.44D-07
 ErrMax= 2.44D-07 EMaxC= 1.00D-01 BMatC= 5.52D-12 BMatP= 1.65D-10
 IDIUse=1 WtCom= 1.00D+00 WtEn= 0.00D+00
 Coeff-Com: -0.103D-05 0.114D-04 0.170D-04 0.452D-04-0.208D-03 0.594D-04
 Coeff-Com:  0.738D-03-0.209D-02 0.170D-02 0.350D-02-0.229D-01 0.850D-02
 Coeff-Com:  0.145D+00-0.460D+00 0.133D+01
 Coeff:     -0.103D-05 0.114D-04 0.170D-04 0.452D-04-0.208D-03 0.594D-04
 Coeff:      0.738D-03-0.209D-02 0.170D-02 0.350D-02-0.229D-01 0.850D-02
 Coeff:      0.145D+00-0.460D+00 0.133D+01
 Gap=     0.711 Goal=   None    Shift=    0.000
 Gap=     0.617 Goal=   None    Shift=    0.000
 RMSDP=1.05D-07 MaxDP=1.16D-06 DE=-1.63D-10 OVMax= 2.09D-06

 Cycle  16  Pass 1  IDiag  1:
 E= -150.168524359337     Delta-E=       -0.000000000004 Rises=F Damp=F
 DIIS: error= 6.92D-08 at cycle  16 NSaved=  16.
 NSaved=16 IEnMin=16 EnMin= -150.168524359337     IErMin=16 ErrMin= 6.92D-08
 ErrMax= 6.92D-08 EMaxC= 1.00D-01 BMatC= 3.42D-13 BMatP= 5.52D-12
 IDIUse=1 WtCom= 1.00D+00 WtEn= 0.00D+00
 Coeff-Com:  0.527D-06-0.742D-05-0.983D-05-0.157D-04 0.973D-04-0.571D-04
 Coeff-Com: -0.284D-03 0.102D-02-0.125D-02 0.581D-03 0.213D-02-0.604D-03
 Coeff-Com: -0.238D-01 0.972D-01-0.565D+00 0.149D+01
 Coeff:      0.527D-06-0.742D-05-0.983D-05-0.157D-04 0.973D-04-0.571D-04
 Coeff:     -0.284D-03 0.102D-02-0.125D-02 0.581D-03 0.213D-02-0.604D-03
 Coeff:     -0.238D-01 0.972D-01-0.565D+00 0.149D+01
 Gap=     0.711 Goal=   None    Shift=    0.000
 Gap=     0.617 Goal=   None    Shift=    0.000
 RMSDP=2.85D-08 MaxDP=2.89D-07 DE=-4.32D-12 OVMax= 5.61D-07

 Cycle  17  Pass 1  IDiag  1:
 E= -150.168524359338     Delta-E=        0.000000000000 Rises=F Damp=F
 DIIS: error= 1.70D-08 at cycle  17 NSaved=  17.
 NSaved=17 IEnMin=17 EnMin= -150.168524359338     IErMin=17 ErrMin= 1.70D-08
 ErrMax= 1.70D-08 EMaxC= 1.00D-01 BMatC= 3.89D-14 BMatP= 3.42D-13
 IDIUse=1 WtCom= 1.00D+00 WtEn= 0.00D+00
 Coeff-Com: -0.566D-07 0.129D-05-0.101D-06 0.257D-05-0.154D-05 0.101D-04
 Coeff-Com: -0.659D-05-0.590D-04 0.212D-03-0.752D-03 0.228D-02-0.117D-02
 Coeff-Com: -0.765D-02 0.165D-01 0.329D-01-0.401D+00 0.136D+01
 Coeff:     -0.566D-07 0.129D-05-0.101D-06 0.257D-05-0.154D-05 0.101D-04
 Coeff:     -0.659D-05-0.590D-04 0.212D-03-0.752D-03 0.228D-02-0.117D-02
 Coeff:     -0.765D-02 0.165D-01 0.329D-01-0.401D+00 0.136D+01
 Gap=     0.711 Goal=   None    Shift=    0.000
 Gap=     0.617 Goal=   None    Shift=    0.000
 RMSDP=1.05D-08 MaxDP=1.30D-07 DE=-3.69D-13 OVMax= 2.58D-07

 Cycle  18  Pass 1  IDiag  1:
 E= -150.168524359338     Delta-E=        0.000000000000 Rises=F Damp=F
 DIIS: error= 9.40D-09 at cycle  18 NSaved=  18.
 NSaved=18 IEnMin=18 EnMin= -150.168524359338     IErMin=18 ErrMin= 9.40D-09
 ErrMax= 9.40D-09 EMaxC= 1.00D-01 BMatC= 1.04D-14 BMatP= 3.89D-14
 IDIUse=1 WtCom= 1.00D+00 WtEn= 0.00D+00
 Large coefficients: NSaved= 18 BigCof=    0.00 CofMax=   10.00 Det=-2.86D-15
 Inversion failed.  Reducing to 17 matrices.
 Large coefficients: NSaved= 17 BigCof=    0.00 CofMax=   10.00 Det=-2.90D-15
 Inversion failed.  Reducing to 16 matrices.
 Large coefficients: NSaved= 16 BigCof=    0.00 CofMax=   10.00 Det=-2.97D-15
 Inversion failed.  Reducing to 15 matrices.
 Coeff-Com:  0.400D-06-0.122D-05-0.105D-05 0.816D-05-0.162D-04 0.544D-05
 Coeff-Com:  0.695D-04-0.354D-03-0.357D-03 0.356D-02-0.745D-02 0.150D-01
 Coeff-Com:  0.475D-01-0.456D+00 0.140D+01
 Coeff:      0.400D-06-0.122D-05-0.105D-05 0.816D-05-0.162D-04 0.544D-05
 Coeff:      0.695D-04-0.354D-03-0.357D-03 0.356D-02-0.745D-02 0.150D-01
 Coeff:      0.475D-01-0.456D+00 0.140D+01
 Gap=     0.711 Goal=   None    Shift=    0.000
 Gap=     0.617 Goal=   None    Shift=    0.000
 RMSDP=4.88D-09 MaxDP=6.83D-08 DE=-8.53D-14 OVMax= 1.43D-07

 SCF Done:  E(UHF) =  -150.168524359     A.U. after   18 cycles
             Convg  =    0.4882D-08             -V/T =  2.0034
 <Sx>= 0.0000 <Sy>= 0.0000 <Sz>= 0.5000 <S**2>= 0.7597 S= 0.5048
 <L.S>= 0.000000000000E+00
 KE= 1.496544242032D+02 PE=-4.205431380305D+02 EE= 8.857962522750D+01
 Annihilation of the first spin contaminant:
 S**2 before annihilation     0.7597,   after     0.7501
 Leave Link  502 at Mon Apr 30 11:37:02 2018, MaxMem=  671088640 cpu:     108.9
 (Enter /shared/apps/gaussian/G09_LINUX_LINDA/g09/l601.exe)
 Copying SCF densities to generalized density rwf, IOpCl= 1 IROHF=0.

 **********************************************************************

            Population analysis using the SCF density.

 **********************************************************************

 Orbital symmetries:
 Alpha Orbitals:
       Occupied  (A') (A') (A') (A') (A') (A") (A') (A") (A')
       Virtual   (A') (A') (A') (A') (A') (A") (A') (A") (A') (A')
                 (A') (A") (A') (A") (A') (A") (A') (A') (A") (A')
                 (A') (A') (A')
 Beta  Orbitals:
       Occupied  (A') (A') (A') (A') (A') (A') (A") (A')
       Virtual   (A") (A') (A') (A') (A') (A') (A") (A') (A') (A")
                 (A') (A') (A') (A") (A") (A') (A") (A') (A') (A')
                 (A") (A') (A') (A')
 The electronic state is 2-A".
 Alpha  occ. eigenvalues --  -20.69448 -20.67997  -1.57408  -1.19597  -0.76417
 Alpha  occ. eigenvalues --   -0.75061  -0.66982  -0.51742  -0.51418
 Alpha virt. eigenvalues --    0.19651   0.35695   0.95338   0.99997   1.04081
 Alpha virt. eigenvalues --    1.05829   1.15632   1.17016   1.20534   1.34033
 Alpha virt. eigenvalues --    1.54227   1.73840   1.77942   1.84979   2.01476
 Alpha virt. eigenvalues --    2.16061   2.51830   2.74972   2.77570   2.78240
 Alpha virt. eigenvalues --    3.21954   3.66145   3.99515
  Beta  occ. eigenvalues --  -20.67236 -20.65436  -1.51187  -1.09541  -0.74393
  Beta  occ. eigenvalues --   -0.64508  -0.56736  -0.47841
  Beta virt. eigenvalues --    0.13847   0.19991   0.39223   0.97038   1.00187
  Beta virt. eigenvalues --    1.04863   1.14564   1.17218   1.21761   1.29710
  Beta virt. eigenvalues --    1.34816   1.55328   1.78693   1.79230   1.88678
  Beta virt. eigenvalues --    2.09582   2.22197   2.53857   2.76556   2.79032
  Beta virt. eigenvalues --    2.82723   3.23697   3.69382   4.00880
          Condensed to atoms (all electrons):
              1          2          3
     1  O    8.029940   0.069413  -0.032456
     2  O    0.069413   8.080786   0.250096
     3  H   -0.032456   0.250096   0.315169
 Mulliken atomic charges:
              1
     1  O   -0.066897
     2  O   -0.400295
     3  H    0.467192
 Sum of Mulliken atomic charges =   0.00000
 Mulliken charges with hydrogens summed into heavy atoms:
              1
     1  O   -0.066897
     2  O    0.066897
 Sum of Mulliken charges with hydrogens summed into heavy atoms =   0.00000
          Atomic-Atomic Spin Densities.
              1          2          3
     1  O    1.039119  -0.108834   0.001456
     2  O   -0.108834   0.191518  -0.002642
     3  H    0.001456  -0.002642  -0.010599
 Mulliken atomic spin densities:
              1
     1  O    0.931742
     2  O    0.080043
     3  H   -0.011784
 Sum of Mulliken atomic spin densities =   1.00000
 Electronic spatial extent (au):  <R**2>=             54.0683
 Charge=              0.0000 electrons
 Dipole moment (field-independent basis, Debye):
    X=             -1.9114    Y=             -0.9505    Z=              0.0000  Tot=              2.1347
 Quadrupole moment (field-independent basis, Debye-Ang):
   XX=             -9.5559   YY=            -10.7456   ZZ=            -10.7539
   XY=              1.8394   XZ=              0.0000   YZ=              0.0000
 Traceless Quadrupole moment (field-independent basis, Debye-Ang):
   XX=              0.7959   YY=             -0.3938   ZZ=             -0.4021
   XY=              1.8394   XZ=              0.0000   YZ=              0.0000
 Octapole moment (field-independent basis, Debye-Ang**2):
  XXX=             -2.4203  YYY=             -1.3467  ZZZ=              0.0000  XYY=             -1.9168
  XXY=             -1.9105  XXZ=              0.0000  XZZ=             -0.2366  YZZ=              0.4924
  YYZ=              0.0000  XYZ=              0.0000
 Hexadecapole moment (field-independent basis, Debye-Ang**3):
 XXXX=             -8.0651 YYYY=            -35.0651 ZZZZ=             -7.1776 XXXY=              0.4993
 XXXZ=              0.0000 YYYX=              0.6457 YYYZ=              0.0000 ZZZX=              0.0000
 ZZZY=              0.0000 XXYY=             -6.9647 XXZZ=             -2.8217 YYZZ=             -7.4136
 XXYZ=              0.0000 YYXZ=              0.0000 ZZXY=             -0.2661
 N-N= 3.214056424046D+01 E-N=-6.240293130865D+02  KE= 2.228055761158D+02
 Symmetry A'   KE= 2.133323330513D+02
 Symmetry A"   KE= 9.473243064476D+00
                          Isotropic Fermi Contact Couplings
        Atom                 a.u.       MegaHertz       Gauss      10(-4) cm-1
     1  O(17)              0.18204    -110.34894     -39.37524     -36.80844
     2  O(17)              0.07184     -43.55086     -15.54003     -14.52700
     3  H(1)              -0.00596     -26.64059      -9.50603      -8.88635
 --------------------------------------------------------
       Center         ----  Spin Dipole Couplings  ----
                      3XX-RR        3YY-RR        3ZZ-RR
 --------------------------------------------------------
     1   Atom       -1.807467     -1.749230      3.556697
     2   Atom       -0.334483     -0.565987      0.900469
     3   Atom        0.023168      0.000160     -0.023327
 --------------------------------------------------------
                        XY            XZ            YZ
 --------------------------------------------------------
     1   Atom       -0.020505      0.000000      0.000000
     2   Atom        0.054169      0.000000      0.000000
     3   Atom        0.034532      0.000000      0.000000
 --------------------------------------------------------


 ---------------------------------------------------------------------------------
              Anisotropic Spin Dipole Couplings in Principal Axis System
 ---------------------------------------------------------------------------------

       Atom             a.u.   MegaHertz   Gauss  10(-4) cm-1        Axes

              Baa    -1.8140   131.257    46.836    43.783  0.9533  0.3020  0.0000
     1 O(17)  Bbb    -1.7427   126.103    44.997    42.063 -0.3020  0.9533  0.0000
              Bcc     3.5567  -257.360   -91.832   -85.846  0.0000  0.0000  1.0000
 
              Baa    -0.5780    41.826    14.925    13.952 -0.2171  0.9761  0.0000
     2 O(17)  Bbb    -0.3224    23.331     8.325     7.782  0.9761  0.2171  0.0000
              Bcc     0.9005   -65.157   -23.250   -21.734  0.0000  0.0000  1.0000
 
              Baa    -0.0247   -13.197    -4.709    -4.402 -0.5848  0.8112  0.0000
     3 H(1)   Bbb    -0.0233   -12.446    -4.441    -4.152  0.0000  0.0000  1.0000
              Bcc     0.0481    25.643     9.150     8.554  0.8112  0.5848  0.0000
 

 ---------------------------------------------------------------------------------

 No NMR shielding tensors so no spin-rotation constants.
 Leave Link  601 at Mon Apr 30 11:37:04 2018, MaxMem=  671088640 cpu:      17.1
 (Enter /shared/apps/gaussian/G09_LINUX_LINDA/g09/l701.exe)
 Compute integral first derivatives.
 ... and contract with generalized density number  0.
 Leave Link  701 at Mon Apr 30 11:37:04 2018, MaxMem=  671088640 cpu:       7.2
 (Enter /shared/apps/gaussian/G09_LINUX_LINDA/g09/l702.exe)
 L702 exits ... SP integral derivatives will be done elsewhere.
 Leave Link  702 at Mon Apr 30 11:37:04 2018, MaxMem=  671088640 cpu:       0.3
 (Enter /shared/apps/gaussian/G09_LINUX_LINDA/g09/l703.exe)
 Compute integral first derivatives, UseDBF=F ICtDFT=           0.
 Integral derivatives from FoFDir, PRISM(SPDF).
 Calling FoFJK, ICntrl=      2127 FMM=F ISym2X=1 I1Cent= 0 IOpClX= 1 NMat=1 NMatS=1 NMatT=0.
 FoFCou: FMM=F IPFlag=           0 FMFlag=      100000 FMFlg1=         800
         NFxFlg=           0 DoJE=F BraDBF=F KetDBF=F FulRan=T
         Omega=  0.000000  0.000000  1.000000  0.000000  0.000000 ICntrl=    2127 IOpCl=  1
         NMat0=    1 NMatS0=    1 NMatT0=    0 NMatD0=    1 NMtDS0=    0 NMtDT0=    0
         I1Cent=           0 NGrid=           0.
 Petite list used in FoFCou.
 Leave Link  703 at Mon Apr 30 11:37:05 2018, MaxMem=  671088640 cpu:       5.8
 (Enter /shared/apps/gaussian/G09_LINUX_LINDA/g09/l716.exe)
 Dipole        =-7.52012446D-01-3.73968592D-01-5.34798107D-33
 ***** Axes restored to original set *****
 -------------------------------------------------------------------
 Center     Atomic                   Forces (Hartrees/Bohr)
 Number     Number              X              Y              Z
 -------------------------------------------------------------------
      1        8          -0.012026430    0.005091378    0.000000000
      2        8          -0.017631455   -0.034623183    0.000000000
      3        1           0.029657885    0.029531806    0.000000000
 -------------------------------------------------------------------
 Cartesian Forces:  Max     0.034623183 RMS     0.019527496
 Leave Link  716 at Mon Apr 30 11:37:05 2018, MaxMem=  671088640 cpu:       0.4
 (Enter /shared/apps/gaussian/G09_LINUX_LINDA/g09/l103.exe)

 GradGradGradGradGradGradGradGradGradGradGradGradGradGradGradGradGradGrad
 Berny optimization.
 Internal  Forces:  Max     0.041831563 RMS     0.025337213
 Search for a local minimum.
 Step number   1 out of a maximum of   20
 All quantities printed in internal units (Hartrees-Bohrs-Radians)
 Swaping is turned off.
 Second derivative matrix not updated -- first step.
 The second derivative matrix:
                          R1        R2        A1
           R1           0.61484
           R2           0.00000   0.48097
           A1           0.00000   0.00000   0.16000
 ITU=  0
     Eigenvalues ---    0.16000   0.48097   0.61484
 Angle between quadratic step and forces=   7.67 degrees.
 Linear search not attempted -- option 19 set.
 Iteration  1 RMS(Cart)=  0.04715411 RMS(Int)=  0.00051422
 Iteration  2 RMS(Cart)=  0.00050646 RMS(Int)=  0.00000016
 Iteration  3 RMS(Cart)=  0.00000016 RMS(Int)=  0.00000000
 ClnCor:  largest displacement from symmetrization is 2.22D-16 for atom     2.
 Variable       Old X    -DE/DX   Delta X   Delta X   Delta X     New X
                                 (Linear)    (Quad)   (Total)
    R1        2.49785  -0.01302   0.00000  -0.02118  -0.02118   2.47667
    R2        1.88536  -0.04183   0.00000  -0.08697  -0.08697   1.79839
    A1        1.84702  -0.00256   0.00000  -0.01598  -0.01598   1.83104
         Item               Value     Threshold  Converged?
 Maximum Force            0.041832     0.000002     NO 
 RMS     Force            0.025337     0.000001     NO 
 Maximum Displacement     0.061070     0.000006     NO 
 RMS     Displacement     0.046960     0.000004     NO 
 Predicted change in Energy=-1.977387D-03
 GradGradGradGradGradGradGradGradGradGradGradGradGradGradGradGradGradGrad

 Leave Link  103 at Mon Apr 30 11:37:06 2018, MaxMem=  671088640 cpu:       6.7
 (Enter /shared/apps/gaussian/G09_LINUX_LINDA/g09/l202.exe)
                          Input orientation:                          
 ---------------------------------------------------------------------
 Center     Atomic      Atomic             Coordinates (Angstroms)
 Number     Number       Type             X           Y           Z
 ---------------------------------------------------------------------
      1          8           0        0.989472   -0.166207    0.000000
      2          8           0       -0.174889    0.435402    0.000000
      3          1           0       -0.814583   -0.269195    0.000000
 ---------------------------------------------------------------------
                    Distance matrix (angstroms):
                    1          2          3
     1  O    0.000000
     2  O    1.310599   0.000000
     3  H    1.806992   0.951665   0.000000
 Stoichiometry    HO2(2)
 Framework group  CS[SG(HO2)]
 Deg. of freedom     3
 Full point group                 CS      NOp   2
 Largest Abelian subgroup         CS      NOp   2
 Largest concise Abelian subgroup C1      NOp   1
                         Standard orientation:                         
 ---------------------------------------------------------------------
 Center     Atomic      Atomic             Coordinates (Angstroms)
 Number     Number       Type             X           Y           Z
 ---------------------------------------------------------------------
      1          8           0        0.054095    0.708251    0.000000
      2          8           0        0.054095   -0.602347    0.000000
      3          1           0       -0.865524   -0.847230    0.000000
 ---------------------------------------------------------------------
 Rotational constants (GHZ):    648.9970856     34.6713182     32.9130092
 Leave Link  202 at Mon Apr 30 11:37:06 2018, MaxMem=  671088640 cpu:       1.2
 (Enter /shared/apps/gaussian/G09_LINUX_LINDA/g09/l301.exe)
 Standard basis: 6-31G(d) (6D, 7F)
 Ernie: Thresh=  0.10000D-02 Tol=  0.10000D-05 Strict=F.
 There are    24 symmetry adapted basis functions of A'  symmetry.
 There are     8 symmetry adapted basis functions of A"  symmetry.
 Integral buffers will be    131072 words long.
 Raffenetti 2 integral format.
 Two-electron integral symmetry is turned on.
    32 basis functions,    60 primitive gaussians,    32 cartesian basis functions
     9 alpha electrons        8 beta electrons
       nuclear repulsion energy        32.6323539571 Hartrees.
 IExCor=    0 DFT=F Ex=HF Corr=None ExCW=0 ScaHFX=  1.000000
 ScaDFX=  1.000000  1.000000  1.000000  1.000000 ScalE2=  1.000000  1.000000
 IRadAn=      0 IRanWt=     -1 IRanGd=            0 ICorTp=0
 NAtoms=    3 NActive=    3 NUniq=    3 SFac= 1.00D+00 NAtFMM=   50 NAOKFM=F Big=F
 Leave Link  301 at Mon Apr 30 11:37:06 2018, MaxMem=  671088640 cpu:       0.9
 (Enter /shared/apps/gaussian/G09_LINUX_LINDA/g09/l302.exe)
 NPDir=0 NMtPBC=     1 NCelOv=     1 NCel=       1 NClECP=     1 NCelD=      1
         NCelK=      1 NCelE2=     1 NClLst=     1 CellRange=     0.0.
 One-electron integrals computed using PRISM.
 NBasis=    32 RedAO= T  NBF=    24     8
 NBsUse=    32 1.00D-06 NBFU=    24     8
 Leave Link  302 at Mon Apr 30 11:37:07 2018, MaxMem=  671088640 cpu:       6.9
 (Enter /shared/apps/gaussian/G09_LINUX_LINDA/g09/l303.exe)
 DipDrv:  MaxL=1.
 Leave Link  303 at Mon Apr 30 11:37:07 2018, MaxMem=  671088640 cpu:       1.4
 (Enter /shared/apps/gaussian/G09_LINUX_LINDA/g09/l401.exe)
 Initial guess read from the read-write file.
 B after Tr=     0.000000    0.000000    0.000000
         Rot=    1.000000    0.000000    0.000000    0.000000 Ang=   0.00 deg.
 Guess basis will be translated and rotated to current coordinates.
 Initial guess orbital symmetries:
 Alpha Orbitals:
       Occupied  (A') (A') (A') (A') (A') (A") (A') (A") (A')
       Virtual   (A') (A') (A') (A') (A') (A") (A') (A") (A') (A')
                 (A') (A") (A') (A") (A') (A") (A') (A') (A") (A')
                 (A') (A') (A')
 Beta  Orbitals:
       Occupied  (A') (A') (A') (A') (A') (A') (A") (A')
       Virtual   (A") (A') (A') (A') (A') (A') (A") (A') (A') (A")
                 (A') (A') (A') (A") (A") (A') (A") (A') (A') (A')
                 (A") (A') (A') (A')
 The electronic state of the initial guess is 2-A".
 Initial guess <Sx>= 0.0000 <Sy>= 0.0000 <Sz>= 0.5000 <S**2>= 0.7596 S= 0.5048
 Generating alternative initial guess.
 Harris functional with IExCor=  205 diagonalized for initial guess.
 ExpMin= 1.61D-01 ExpMax= 5.48D+03 ExpMxC= 8.25D+02 IAcc=1 IRadAn=         1 AccDes= 0.00D+00
 HarFok:  IExCor=  205 AccDes= 0.00D+00 IRadAn=         1 IDoV= 1
 ScaDFX=  1.000000  1.000000  1.000000  1.000000
 FoFCou: FMM=F IPFlag=           0 FMFlag=      100000 FMFlg1=           0
         NFxFlg=           0 DoJE=T BraDBF=F KetDBF=T FulRan=T
         Omega=  0.000000  0.000000  1.000000  0.000000  0.000000 ICntrl=     500 IOpCl=  0
         NMat0=    1 NMatS0=    1 NMatT0=    0 NMatD0=    1 NMtDS0=    0 NMtDT0=    0
         I1Cent=           4 NGrid=           0.
 Petite list used in FoFCou.
 Harris En= -150.166583592114    
 Leave Link  401 at Mon Apr 30 11:37:10 2018, MaxMem=  671088640 cpu:      22.6
 (Enter /shared/apps/gaussian/G09_LINUX_LINDA/g09/l502.exe)
 UHF open shell SCF:
 Requested convergence on RMS density matrix=1.00D-08 within 128 cycles.
 Requested convergence on MAX density matrix=1.00D-06.
 Requested convergence on             energy=1.00D-06.
 No special actions if energy rises.
 Using DIIS extrapolation, IDIIS=  1040.
 Integral symmetry usage will be decided dynamically.
 Keep R1 and R2 ints in memory in canonical form, NReq=1121441.
 IEnd=       22108 IEndB=       22108 NGot=   671088640 MDV=   670804889
 LenX=   670804889 LenY=   670803424
 Symmetry not used in FoFDir.
 MinBra= 0 MaxBra= 2 Meth= 1.
 IRaf=       0 NMat=   1 IRICut=       1 DoRegI=T DoRafI=F ISym2E= 0 JSym2E=0.

 Cycle   1  Pass 1  IDiag  1:
 E= -150.169705488385    
 DIIS: error= 3.83D-03 at cycle   1 NSaved=   1.
 NSaved= 1 IEnMin= 1 EnMin= -150.169705488385     IErMin= 1 ErrMin= 3.83D-03
 ErrMax= 3.83D-03 EMaxC= 1.00D-01 BMatC= 2.85D-03 BMatP= 2.85D-03
 IDIUse=3 WtCom= 9.62D-01 WtEn= 3.83D-02
 Coeff-Com:  0.100D+01
 Coeff-En:   0.100D+01
 Coeff:      0.100D+01
 Gap=     0.730 Goal=   None    Shift=    0.000
 Gap=     0.620 Goal=   None    Shift=    0.000
 GapD=    0.620 DampG=2.000 DampE=1.000 DampFc=2.0000 IDamp=-1.
 RMSDP=8.13D-04 MaxDP=7.93D-03              OVMax= 8.61D-03

 Cycle   2  Pass 1  IDiag  1:
 E= -150.170392009237     Delta-E=       -0.000686520852 Rises=F Damp=F
 DIIS: error= 1.65D-03 at cycle   2 NSaved=   2.
 NSaved= 2 IEnMin= 2 EnMin= -150.170392009237     IErMin= 2 ErrMin= 1.65D-03
 ErrMax= 1.65D-03 EMaxC= 1.00D-01 BMatC= 3.98D-04 BMatP= 2.85D-03
 IDIUse=3 WtCom= 9.83D-01 WtEn= 1.65D-02
 Coeff-Com:  0.128D+00 0.872D+00
 Coeff-En:   0.000D+00 0.100D+01
 Coeff:      0.126D+00 0.874D+00
 Gap=     0.726 Goal=   None    Shift=    0.000
 Gap=     0.619 Goal=   None    Shift=    0.000
 RMSDP=2.76D-04 MaxDP=3.78D-03 DE=-6.87D-04 OVMax= 4.56D-03

 Cycle   3  Pass 1  IDiag  1:
 E= -150.170475014900     Delta-E=       -0.000083005663 Rises=F Damp=F
 DIIS: error= 7.19D-04 at cycle   3 NSaved=   3.
 NSaved= 3 IEnMin= 3 EnMin= -150.170475014900     IErMin= 3 ErrMin= 7.19D-04
 ErrMax= 7.19D-04 EMaxC= 1.00D-01 BMatC= 8.82D-05 BMatP= 3.98D-04
 IDIUse=3 WtCom= 9.93D-01 WtEn= 7.19D-03
 Coeff-Com: -0.813D-01 0.241D+00 0.840D+00
 Coeff-En:   0.000D+00 0.000D+00 0.100D+01
 Coeff:     -0.807D-01 0.239D+00 0.841D+00
 Gap=     0.725 Goal=   None    Shift=    0.000
 Gap=     0.619 Goal=   None    Shift=    0.000
 RMSDP=1.41D-04 MaxDP=1.66D-03 DE=-8.30D-05 OVMax= 1.91D-03

 Cycle   4  Pass 1  IDiag  1:
 E= -150.170499232182     Delta-E=       -0.000024217282 Rises=F Damp=F
 DIIS: error= 3.84D-04 at cycle   4 NSaved=   4.
 NSaved= 4 IEnMin= 4 EnMin= -150.170499232182     IErMin= 4 ErrMin= 3.84D-04
 ErrMax= 3.84D-04 EMaxC= 1.00D-01 BMatC= 5.19D-06 BMatP= 8.82D-05
 IDIUse=3 WtCom= 9.96D-01 WtEn= 3.84D-03
 Coeff-Com: -0.861D-02-0.650D-01-0.748D-02 0.108D+01
 Coeff-En:   0.000D+00 0.000D+00 0.000D+00 0.100D+01
 Coeff:     -0.858D-02-0.648D-01-0.745D-02 0.108D+01
 Gap=     0.725 Goal=   None    Shift=    0.000
 Gap=     0.619 Goal=   None    Shift=    0.000
 RMSDP=6.95D-05 MaxDP=6.98D-04 DE=-2.42D-05 OVMax= 1.23D-03

 Cycle   5  Pass 1  IDiag  1:
 E= -150.170503056026     Delta-E=       -0.000003823843 Rises=F Damp=F
 DIIS: error= 1.70D-04 at cycle   5 NSaved=   5.
 NSaved= 5 IEnMin= 5 EnMin= -150.170503056026     IErMin= 5 ErrMin= 1.70D-04
 ErrMax= 1.70D-04 EMaxC= 1.00D-01 BMatC= 1.28D-06 BMatP= 5.19D-06
 IDIUse=3 WtCom= 9.98D-01 WtEn= 1.70D-03
 Coeff-Com:  0.113D-01-0.262D-01-0.129D+00-0.596D-01 0.120D+01
 Coeff-En:   0.000D+00 0.000D+00 0.000D+00 0.000D+00 0.100D+01
 Coeff:      0.113D-01-0.261D-01-0.129D+00-0.595D-01 0.120D+01
 Gap=     0.725 Goal=   None    Shift=    0.000
 Gap=     0.619 Goal=   None    Shift=    0.000
 RMSDP=4.09D-05 MaxDP=4.84D-04 DE=-3.82D-06 OVMax= 8.09D-04

 Cycle   6  Pass 1  IDiag  1:
 E= -150.170504224118     Delta-E=       -0.000001168092 Rises=F Damp=F
 DIIS: error= 1.10D-04 at cycle   6 NSaved=   6.
 NSaved= 6 IEnMin= 6 EnMin= -150.170504224118     IErMin= 6 ErrMin= 1.10D-04
 ErrMax= 1.10D-04 EMaxC= 1.00D-01 BMatC= 3.39D-07 BMatP= 1.28D-06
 IDIUse=3 WtCom= 9.99D-01 WtEn= 1.10D-03
 Coeff-Com: -0.167D-02 0.210D-01 0.273D-01-0.142D+00-0.351D+00 0.145D+01
 Coeff-En:   0.000D+00 0.000D+00 0.000D+00 0.000D+00 0.000D+00 0.100D+01
 Coeff:     -0.166D-02 0.209D-01 0.273D-01-0.142D+00-0.351D+00 0.145D+01
 Gap=     0.725 Goal=   None    Shift=    0.000
 Gap=     0.619 Goal=   None    Shift=    0.000
 RMSDP=2.21D-05 MaxDP=3.25D-04 DE=-1.17D-06 OVMax= 6.06D-04

 Cycle   7  Pass 1  IDiag  1:
 E= -150.170504639861     Delta-E=       -0.000000415743 Rises=F Damp=F
 DIIS: error= 5.03D-05 at cycle   7 NSaved=   7.
 NSaved= 7 IEnMin= 7 EnMin= -150.170504639861     IErMin= 7 ErrMin= 5.03D-05
 ErrMax= 5.03D-05 EMaxC= 1.00D-01 BMatC= 1.08D-07 BMatP= 3.39D-07
 IDIUse=1 WtCom= 1.00D+00 WtEn= 0.00D+00
 Coeff-Com: -0.267D-02-0.179D-02 0.196D-01 0.120D+00-0.209D+00-0.876D+00
 Coeff-Com:  0.195D+01
 Coeff:     -0.267D-02-0.179D-02 0.196D-01 0.120D+00-0.209D+00-0.876D+00
 Coeff:      0.195D+01
 Gap=     0.725 Goal=   None    Shift=    0.000
 Gap=     0.619 Goal=   None    Shift=    0.000
 RMSDP=1.86D-05 MaxDP=2.79D-04 DE=-4.16D-07 OVMax= 5.07D-04

 Cycle   8  Pass 1  IDiag  1:
 E= -150.170504809262     Delta-E=       -0.000000169402 Rises=F Damp=F
 DIIS: error= 1.75D-05 at cycle   8 NSaved=   8.
 NSaved= 8 IEnMin= 8 EnMin= -150.170504809262     IErMin= 8 ErrMin= 1.75D-05
 ErrMax= 1.75D-05 EMaxC= 1.00D-01 BMatC= 1.52D-08 BMatP= 1.08D-07
 IDIUse=1 WtCom= 1.00D+00 WtEn= 0.00D+00
 Coeff-Com:  0.191D-02-0.142D-02-0.169D-01-0.595D-01 0.187D+00 0.371D+00
 Coeff-Com: -0.130D+01 0.182D+01
 Coeff:      0.191D-02-0.142D-02-0.169D-01-0.595D-01 0.187D+00 0.371D+00
 Coeff:     -0.130D+01 0.182D+01
 Gap=     0.725 Goal=   None    Shift=    0.000
 Gap=     0.619 Goal=   None    Shift=    0.000
 RMSDP=6.59D-06 MaxDP=9.15D-05 DE=-1.69D-07 OVMax= 1.32D-04

 Cycle   9  Pass 1  IDiag  1:
 E= -150.170504829534     Delta-E=       -0.000000020272 Rises=F Damp=F
 DIIS: error= 6.03D-06 at cycle   9 NSaved=   9.
 NSaved= 9 IEnMin= 9 EnMin= -150.170504829534     IErMin= 9 ErrMin= 6.03D-06
 ErrMax= 6.03D-06 EMaxC= 1.00D-01 BMatC= 3.13D-09 BMatP= 1.52D-08
 IDIUse=1 WtCom= 1.00D+00 WtEn= 0.00D+00
 Coeff-Com: -0.965D-03 0.160D-02 0.100D-01 0.183D-01-0.105D+00-0.812D-01
 Coeff-Com:  0.575D+00-0.136D+01 0.195D+01
 Coeff:     -0.965D-03 0.160D-02 0.100D-01 0.183D-01-0.105D+00-0.812D-01
 Coeff:      0.575D+00-0.136D+01 0.195D+01
 Gap=     0.725 Goal=   None    Shift=    0.000
 Gap=     0.619 Goal=   None    Shift=    0.000
 RMSDP=3.19D-06 MaxDP=3.37D-05 DE=-2.03D-08 OVMax= 5.06D-05

 Cycle  10  Pass 1  IDiag  1:
 E= -150.170504833722     Delta-E=       -0.000000004188 Rises=F Damp=F
 DIIS: error= 3.03D-06 at cycle  10 NSaved=  10.
 NSaved=10 IEnMin=10 EnMin= -150.170504833722     IErMin=10 ErrMin= 3.03D-06
 ErrMax= 3.03D-06 EMaxC= 1.00D-01 BMatC= 4.90D-10 BMatP= 3.13D-09
 IDIUse=1 WtCom= 1.00D+00 WtEn= 0.00D+00
 Coeff-Com:  0.146D-03-0.555D-03-0.190D-02 0.649D-03 0.221D-01-0.286D-01
 Coeff-Com: -0.689D-01 0.427D+00-0.114D+01 0.179D+01
 Coeff:      0.146D-03-0.555D-03-0.190D-02 0.649D-03 0.221D-01-0.286D-01
 Coeff:     -0.689D-01 0.427D+00-0.114D+01 0.179D+01
 Gap=     0.725 Goal=   None    Shift=    0.000
 Gap=     0.619 Goal=   None    Shift=    0.000
 RMSDP=1.40D-06 MaxDP=1.73D-05 DE=-4.19D-09 OVMax= 2.36D-05

 Cycle  11  Pass 1  IDiag  1:
 E= -150.170504834402     Delta-E=       -0.000000000680 Rises=F Damp=F
 DIIS: error= 9.72D-07 at cycle  11 NSaved=  11.
 NSaved=11 IEnMin=11 EnMin= -150.170504834402     IErMin=11 ErrMin= 9.72D-07
 ErrMax= 9.72D-07 EMaxC= 1.00D-01 BMatC= 5.53D-11 BMatP= 4.90D-10
 IDIUse=1 WtCom= 1.00D+00 WtEn= 0.00D+00
 Coeff-Com: -0.246D-04 0.154D-03 0.575D-03-0.128D-02-0.627D-02 0.180D-01
 Coeff-Com:  0.154D-01-0.194D+00 0.631D+00-0.130D+01 0.183D+01
 Coeff:     -0.246D-04 0.154D-03 0.575D-03-0.128D-02-0.627D-02 0.180D-01
 Coeff:      0.154D-01-0.194D+00 0.631D+00-0.130D+01 0.183D+01
 Gap=     0.725 Goal=   None    Shift=    0.000
 Gap=     0.619 Goal=   None    Shift=    0.000
 RMSDP=4.17D-07 MaxDP=4.48D-06 DE=-6.80D-10 OVMax= 7.24D-06

 Cycle  12  Pass 1  IDiag  1:
 E= -150.170504834476     Delta-E=       -0.000000000073 Rises=F Damp=F
 DIIS: error= 2.85D-07 at cycle  12 NSaved=  12.
 NSaved=12 IEnMin=12 EnMin= -150.170504834476     IErMin=12 ErrMin= 2.85D-07
 ErrMax= 2.85D-07 EMaxC= 1.00D-01 BMatC= 5.46D-12 BMatP= 5.53D-11
 IDIUse=1 WtCom= 1.00D+00 WtEn= 0.00D+00
 Coeff-Com: -0.652D-06-0.808D-04-0.883D-04 0.106D-02 0.117D-02-0.115D-01
 Coeff-Com:  0.716D-02 0.543D-01-0.224D+00 0.539D+00-0.108D+01 0.171D+01
 Coeff:     -0.652D-06-0.808D-04-0.883D-04 0.106D-02 0.117D-02-0.115D-01
 Coeff:      0.716D-02 0.543D-01-0.224D+00 0.539D+00-0.108D+01 0.171D+01
 Gap=     0.725 Goal=   None    Shift=    0.000
 Gap=     0.619 Goal=   None    Shift=    0.000
 RMSDP=1.36D-07 MaxDP=1.15D-06 DE=-7.33D-11 OVMax= 2.63D-06

 Cycle  13  Pass 1  IDiag  1:
 E= -150.170504834482     Delta-E=       -0.000000000007 Rises=F Damp=F
 DIIS: error= 5.62D-08 at cycle  13 NSaved=  13.
 NSaved=13 IEnMin=13 EnMin= -150.170504834482     IErMin=13 ErrMin= 5.62D-08
 ErrMax= 5.62D-08 EMaxC= 1.00D-01 BMatC= 3.82D-13 BMatP= 5.46D-12
 IDIUse=1 WtCom= 1.00D+00 WtEn= 0.00D+00
 Coeff-Com:  0.184D-05 0.270D-04 0.117D-04-0.446D-03-0.748D-04 0.417D-02
 Coeff-Com: -0.420D-02-0.137D-01 0.661D-01-0.174D+00 0.404D+00-0.847D+00
 Coeff-Com:  0.157D+01
 Coeff:      0.184D-05 0.270D-04 0.117D-04-0.446D-03-0.748D-04 0.417D-02
 Coeff:     -0.420D-02-0.137D-01 0.661D-01-0.174D+00 0.404D+00-0.847D+00
 Coeff:      0.157D+01
 Gap=     0.725 Goal=   None    Shift=    0.000
 Gap=     0.619 Goal=   None    Shift=    0.000
 RMSDP=2.76D-08 MaxDP=2.31D-07 DE=-6.65D-12 OVMax= 4.88D-07

 Cycle  14  Pass 1  IDiag  1:
 E= -150.170504834482     Delta-E=        0.000000000000 Rises=F Damp=F
 DIIS: error= 3.06D-08 at cycle  14 NSaved=  14.
 NSaved=14 IEnMin=14 EnMin= -150.170504834482     IErMin=14 ErrMin= 3.06D-08
 ErrMax= 3.06D-08 EMaxC= 1.00D-01 BMatC= 7.12D-14 BMatP= 3.82D-13
 IDIUse=1 WtCom= 1.00D+00 WtEn= 0.00D+00
 Coeff-Com: -0.658D-06-0.160D-04-0.122D-04 0.266D-03 0.582D-04-0.245D-02
 Coeff-Com:  0.219D-02 0.948D-02-0.433D-01 0.115D+00-0.281D+00 0.654D+00
 Coeff-Com: -0.164D+01 0.218D+01
 Coeff:     -0.658D-06-0.160D-04-0.122D-04 0.266D-03 0.582D-04-0.245D-02
 Coeff:      0.219D-02 0.948D-02-0.433D-01 0.115D+00-0.281D+00 0.654D+00
 Coeff:     -0.164D+01 0.218D+01
 Gap=     0.725 Goal=   None    Shift=    0.000
 Gap=     0.619 Goal=   None    Shift=    0.000
 RMSDP=1.62D-08 MaxDP=1.47D-07 DE=-1.14D-13 OVMax= 3.11D-07

 Cycle  15  Pass 1  IDiag  1:
 E= -150.170504834483     Delta-E=        0.000000000000 Rises=F Damp=F
 DIIS: error= 5.79D-09 at cycle  15 NSaved=  15.
 NSaved=15 IEnMin=15 EnMin= -150.170504834483     IErMin=15 ErrMin= 5.79D-09
 ErrMax= 5.79D-09 EMaxC= 1.00D-01 BMatC= 3.20D-15 BMatP= 7.12D-14
 IDIUse=1 WtCom= 1.00D+00 WtEn= 0.00D+00
 Coeff-Com:  0.101D-06 0.370D-05 0.253D-05-0.577D-04-0.151D-04 0.541D-03
 Coeff-Com: -0.517D-03-0.192D-02 0.908D-02-0.245D-01 0.622D-01-0.154D+00
 Coeff-Com:  0.444D+00-0.791D+00 0.146D+01
 Coeff:      0.101D-06 0.370D-05 0.253D-05-0.577D-04-0.151D-04 0.541D-03
 Coeff:     -0.517D-03-0.192D-02 0.908D-02-0.245D-01 0.622D-01-0.154D+00
 Coeff:      0.444D+00-0.791D+00 0.146D+01
 Gap=     0.725 Goal=   None    Shift=    0.000
 Gap=     0.619 Goal=   None    Shift=    0.000
 RMSDP=3.15D-09 MaxDP=2.95D-08 DE=-2.84D-13 OVMax= 6.21D-08

 SCF Done:  E(UHF) =  -150.170504834     A.U. after   15 cycles
             Convg  =    0.3154D-08             -V/T =  2.0027
 <Sx>= 0.0000 <Sy>= 0.0000 <Sz>= 0.5000 <S**2>= 0.7594 S= 0.5047
 <L.S>= 0.000000000000E+00
 KE= 1.497722616831D+02 PE=-4.215661181640D+02 EE= 8.899099768933D+01
 Annihilation of the first spin contaminant:
 S**2 before annihilation     0.7594,   after     0.7501
 Leave Link  502 at Mon Apr 30 11:37:24 2018, MaxMem=  671088640 cpu:     143.9
 (Enter /shared/apps/gaussian/G09_LINUX_LINDA/g09/l701.exe)
 Compute integral first derivatives.
 ... and contract with generalized density number  0.
 Leave Link  701 at Mon Apr 30 11:37:25 2018, MaxMem=  671088640 cpu:       6.7
 (Enter /shared/apps/gaussian/G09_LINUX_LINDA/g09/l702.exe)
 L702 exits ... SP integral derivatives will be done elsewhere.
 Leave Link  702 at Mon Apr 30 11:37:25 2018, MaxMem=  671088640 cpu:       0.2
 (Enter /shared/apps/gaussian/G09_LINUX_LINDA/g09/l703.exe)
 Compute integral first derivatives, UseDBF=F ICtDFT=           0.
 Integral derivatives from FoFDir, PRISM(SPDF).
 Calling FoFJK, ICntrl=      2127 FMM=F ISym2X=1 I1Cent= 0 IOpClX= 1 NMat=1 NMatS=1 NMatT=0.
 FoFCou: FMM=F IPFlag=           0 FMFlag=      100000 FMFlg1=         800
         NFxFlg=           0 DoJE=F BraDBF=F KetDBF=F FulRan=T
         Omega=  0.000000  0.000000  1.000000  0.000000  0.000000 ICntrl=    2127 IOpCl=  1
         NMat0=    1 NMatS0=    1 NMatT0=    0 NMatD0=    1 NMtDS0=    0 NMtDT0=    0
         I1Cent=           0 NGrid=           0.
 Petite list used in FoFCou.
 Leave Link  703 at Mon Apr 30 11:37:26 2018, MaxMem=  671088640 cpu:       7.0
 (Enter /shared/apps/gaussian/G09_LINUX_LINDA/g09/l716.exe)
 Dipole        =-7.34297716D-01-3.69229770D-01 3.76883644D-32
 ***** Axes restored to original set *****
 -------------------------------------------------------------------
 Center     Atomic                   Forces (Hartrees/Bohr)
 Number     Number              X              Y              Z
 -------------------------------------------------------------------
      1        8           0.000135492    0.001460606    0.000000000
      2        8           0.002497524   -0.001346439    0.000000000
      3        1          -0.002633016   -0.000114166    0.000000000
 -------------------------------------------------------------------
 Cartesian Forces:  Max     0.002633016 RMS     0.001380340
 Leave Link  716 at Mon Apr 30 11:37:26 2018, MaxMem=  671088640 cpu:       0.3
 (Enter /shared/apps/gaussian/G09_LINUX_LINDA/g09/l103.exe)

 GradGradGradGradGradGradGradGradGradGradGradGradGradGradGradGradGradGrad
 Berny optimization.
 Using GDIIS optimizer.
 Internal  Forces:  Max     0.003367840 RMS     0.002242302
 Search for a local minimum.
 Step number   2 out of a maximum of   20
 All quantities printed in internal units (Hartrees-Bohrs-Radians)
 Swaping is turned off.
 Update second derivatives using D2CorX and points    1    2
 DE= -1.98D-03 DEPred=-1.98D-03 R= 1.00D+00
 SS=  1.41D+00  RLast= 9.09D-02 DXNew= 5.0454D-01 2.7279D-01
 Trust test= 1.00D+00 RLast= 9.09D-02 DXMaxT set to 3.00D-01
 The second derivative matrix:
                          R1        R2        A1
           R1           0.60937
           R2          -0.00671   0.49746
           A1           0.00935   0.03520   0.16679
 ITU=  1  0
     Eigenvalues ---    0.16286   0.50087   0.60989
 DIIS coeff's:      0.95108      0.04892
 Cosine:  1.000 >  0.970
 Length:  1.000
 GDIIS step was calculated using  2 of the last  2 vectors.
 Iteration  1 RMS(Cart)=  0.01285489 RMS(Int)=  0.00009365
 Iteration  2 RMS(Cart)=  0.00007348 RMS(Int)=  0.00000000
 Iteration  3 RMS(Cart)=  0.00000000 RMS(Int)=  0.00000000
 ClnCor:  largest displacement from symmetrization is 4.48D-16 for atom     1.
 Variable       Old X    -DE/DX   Delta X   Delta X   Delta X     New X
                                  (DIIS)     (GDIIS)  (Total)
    R1        2.47667  -0.00055   0.00104  -0.00222  -0.00118   2.47549
    R2        1.79839   0.00185   0.00426  -0.00194   0.00231   1.80070
    A1        1.83104   0.00337   0.00078   0.01899   0.01977   1.85081
         Item               Value     Threshold  Converged?
 Maximum Force            0.003368     0.000002     NO 
 RMS     Force            0.002242     0.000001     NO 
 Maximum Displacement     0.014696     0.000006     NO 
 RMS     Displacement     0.012827     0.000004     NO 
 Predicted change in Energy=-3.576115D-05
 GradGradGradGradGradGradGradGradGradGradGradGradGradGradGradGradGradGrad

 Leave Link  103 at Mon Apr 30 11:37:27 2018, MaxMem=  671088640 cpu:       8.9
 (Enter /shared/apps/gaussian/G09_LINUX_LINDA/g09/l202.exe)
                          Input orientation:                          
 ---------------------------------------------------------------------
 Center     Atomic      Atomic             Coordinates (Angstroms)
 Number     Number       Type             X           Y           Z
 ---------------------------------------------------------------------
      1          8           0        0.995119   -0.163199    0.000000
      2          8           0       -0.172759    0.430174    0.000000
      3          1           0       -0.822360   -0.266975    0.000000
 ---------------------------------------------------------------------
                    Distance matrix (angstroms):
                    1          2          3
     1  O    0.000000
     2  O    1.309974   0.000000
     3  H    1.820440   0.952889   0.000000
 Stoichiometry    HO2(2)
 Framework group  CS[SG(HO2)]
 Deg. of freedom     3
 Full point group                 CS      NOp   2
 Largest Abelian subgroup         CS      NOp   2
 Largest concise Abelian subgroup C1      NOp   1
                         Standard orientation:                         
 ---------------------------------------------------------------------
 Center     Atomic      Atomic             Coordinates (Angstroms)
 Number     Number       Type             X           Y           Z
 ---------------------------------------------------------------------
      1          8           0        0.053869    0.709007    0.000000
      2          8           0        0.053869   -0.600967    0.000000
      3          1           0       -0.861905   -0.864320    0.000000
 ---------------------------------------------------------------------
 Rotational constants (GHZ):    656.0078119     34.6223942     32.8867183
 Leave Link  202 at Mon Apr 30 11:37:27 2018, MaxMem=  671088640 cpu:       1.1
 (Enter /shared/apps/gaussian/G09_LINUX_LINDA/g09/l301.exe)
 Standard basis: 6-31G(d) (6D, 7F)
 Ernie: Thresh=  0.10000D-02 Tol=  0.10000D-05 Strict=F.
 There are    24 symmetry adapted basis functions of A'  symmetry.
 There are     8 symmetry adapted basis functions of A"  symmetry.
 Integral buffers will be    131072 words long.
 Raffenetti 2 integral format.
 Two-electron integral symmetry is turned on.
    32 basis functions,    60 primitive gaussians,    32 cartesian basis functions
     9 alpha electrons        8 beta electrons
       nuclear repulsion energy        32.6216580604 Hartrees.
 IExCor=    0 DFT=F Ex=HF Corr=None ExCW=0 ScaHFX=  1.000000
 ScaDFX=  1.000000  1.000000  1.000000  1.000000 ScalE2=  1.000000  1.000000
 IRadAn=      0 IRanWt=     -1 IRanGd=            0 ICorTp=0
 NAtoms=    3 NActive=    3 NUniq=    3 SFac= 1.00D+00 NAtFMM=   50 NAOKFM=F Big=F
 Leave Link  301 at Mon Apr 30 11:37:28 2018, MaxMem=  671088640 cpu:       1.0
 (Enter /shared/apps/gaussian/G09_LINUX_LINDA/g09/l302.exe)
 NPDir=0 NMtPBC=     1 NCelOv=     1 NCel=       1 NClECP=     1 NCelD=      1
         NCelK=      1 NCelE2=     1 NClLst=     1 CellRange=     0.0.
 One-electron integrals computed using PRISM.
 NBasis=    32 RedAO= T  NBF=    24     8
 NBsUse=    32 1.00D-06 NBFU=    24     8
 Leave Link  302 at Mon Apr 30 11:37:28 2018, MaxMem=  671088640 cpu:       7.4
 (Enter /shared/apps/gaussian/G09_LINUX_LINDA/g09/l303.exe)
 DipDrv:  MaxL=1.
 Leave Link  303 at Mon Apr 30 11:37:29 2018, MaxMem=  671088640 cpu:       1.6
 (Enter /shared/apps/gaussian/G09_LINUX_LINDA/g09/l401.exe)
 Initial guess read from the read-write file.
 B after Tr=     0.000000    0.000000    0.000000
         Rot=    1.000000    0.000000    0.000000    0.000000 Ang=   0.00 deg.
 Guess basis will be translated and rotated to current coordinates.
 Initial guess orbital symmetries:
 Alpha Orbitals:
       Occupied  (A') (A') (A') (A') (A') (A") (A') (A") (A')
       Virtual   (A') (A') (A') (A') (A') (A") (A') (A") (A') (A')
                 (A') (A") (A') (A") (A') (A") (A') (A') (A") (A')
                 (A') (A') (A')
 Beta  Orbitals:
       Occupied  (A') (A') (A') (A') (A') (A') (A") (A')
       Virtual   (A") (A') (A') (A') (A') (A') (A") (A') (A') (A")
                 (A') (A') (A') (A") (A") (A') (A") (A') (A') (A")
                 (A') (A') (A') (A')
 The electronic state of the initial guess is 2-A".
 Initial guess <Sx>= 0.0000 <Sy>= 0.0000 <Sz>= 0.5000 <S**2>= 0.7594 S= 0.5047
 Leave Link  401 at Mon Apr 30 11:37:30 2018, MaxMem=  671088640 cpu:      12.0
 (Enter /shared/apps/gaussian/G09_LINUX_LINDA/g09/l502.exe)
 UHF open shell SCF:
 Requested convergence on RMS density matrix=1.00D-08 within 128 cycles.
 Requested convergence on MAX density matrix=1.00D-06.
 Requested convergence on             energy=1.00D-06.
 No special actions if energy rises.
 Using DIIS extrapolation, IDIIS=  1040.
 Integral symmetry usage will be decided dynamically.
 Keep R1 and R2 ints in memory in canonical form, NReq=1121441.
 IEnd=       22108 IEndB=       22108 NGot=   671088640 MDV=   670804889
 LenX=   670804889 LenY=   670803424
 Symmetry not used in FoFDir.
 MinBra= 0 MaxBra= 2 Meth= 1.
 IRaf=       0 NMat=   1 IRICut=       1 DoRegI=T DoRafI=F ISym2E= 0 JSym2E=0.

 Cycle   1  Pass 1  IDiag  1:
 E= -150.170487342664    
 DIIS: error= 8.85D-04 at cycle   1 NSaved=   1.
 NSaved= 1 IEnMin= 1 EnMin= -150.170487342664     IErMin= 1 ErrMin= 8.85D-04
 ErrMax= 8.85D-04 EMaxC= 1.00D-01 BMatC= 1.00D-04 BMatP= 1.00D-04
 IDIUse=3 WtCom= 9.91D-01 WtEn= 8.85D-03
 Coeff-Com:  0.100D+01
 Coeff-En:   0.100D+01
 Coeff:      0.100D+01
 Gap=     0.723 Goal=   None    Shift=    0.000
 Gap=     0.619 Goal=   None    Shift=    0.000
 RMSDP=1.44D-04 MaxDP=1.45D-03              OVMax= 1.62D-03

 Cycle   2  Pass 1  IDiag  1:
 E= -150.170516417409     Delta-E=       -0.000029074746 Rises=F Damp=F
 DIIS: error= 2.05D-04 at cycle   2 NSaved=   2.
 NSaved= 2 IEnMin= 2 EnMin= -150.170516417409     IErMin= 2 ErrMin= 2.05D-04
 ErrMax= 2.05D-04 EMaxC= 1.00D-01 BMatC= 6.02D-06 BMatP= 1.00D-04
 IDIUse=3 WtCom= 9.98D-01 WtEn= 2.05D-03
 Coeff-Com: -0.152D+00 0.115D+01
 Coeff-En:   0.000D+00 0.100D+01
 Coeff:     -0.152D+00 0.115D+01
 Gap=     0.723 Goal=   None    Shift=    0.000
 Gap=     0.618 Goal=   None    Shift=    0.000
 RMSDP=4.81D-05 MaxDP=4.24D-04 DE=-2.91D-05 OVMax= 6.20D-04

 Cycle   3  Pass 1  IDiag  1:
 E= -150.170519219889     Delta-E=       -0.000002802480 Rises=F Damp=F
 DIIS: error= 6.61D-05 at cycle   3 NSaved=   3.
 NSaved= 3 IEnMin= 3 EnMin= -150.170519219889     IErMin= 3 ErrMin= 6.61D-05
 ErrMax= 6.61D-05 EMaxC= 1.00D-01 BMatC= 6.31D-07 BMatP= 6.02D-06
 IDIUse=1 WtCom= 1.00D+00 WtEn= 0.00D+00
 Coeff-Com: -0.328D-01-0.622D-01 0.110D+01
 Coeff:     -0.328D-01-0.622D-01 0.110D+01
 Gap=     0.723 Goal=   None    Shift=    0.000
 Gap=     0.618 Goal=   None    Shift=    0.000
 RMSDP=2.15D-05 MaxDP=1.52D-04 DE=-2.80D-06 OVMax= 3.25D-04

 Cycle   4  Pass 1  IDiag  1:
 E= -150.170519598498     Delta-E=       -0.000000378609 Rises=F Damp=F
 DIIS: error= 3.17D-05 at cycle   4 NSaved=   4.
 NSaved= 4 IEnMin= 4 EnMin= -150.170519598498     IErMin= 4 ErrMin= 3.17D-05
 ErrMax= 3.17D-05 EMaxC= 1.00D-01 BMatC= 1.29D-07 BMatP= 6.31D-07
 IDIUse=1 WtCom= 1.00D+00 WtEn= 0.00D+00
 Coeff-Com:  0.143D-01-0.117D+00 0.442D-01 0.106D+01
 Coeff:      0.143D-01-0.117D+00 0.442D-01 0.106D+01
 Gap=     0.723 Goal=   None    Shift=    0.000
 Gap=     0.618 Goal=   None    Shift=    0.000
 RMSDP=1.11D-05 MaxDP=7.66D-05 DE=-3.79D-07 OVMax= 1.65D-04

 Cycle   5  Pass 1  IDiag  1:
 E= -150.170519681438     Delta-E=       -0.000000082940 Rises=F Damp=F
 DIIS: error= 1.96D-05 at cycle   5 NSaved=   5.
 NSaved= 5 IEnMin= 5 EnMin= -150.170519681438     IErMin= 5 ErrMin= 1.96D-05
 ErrMax= 1.96D-05 EMaxC= 1.00D-01 BMatC= 2.78D-08 BMatP= 1.29D-07
 IDIUse=1 WtCom= 1.00D+00 WtEn= 0.00D+00
 Coeff-Com:  0.835D-02-0.221D-02-0.216D+00 0.111D+00 0.110D+01
 Coeff:      0.835D-02-0.221D-02-0.216D+00 0.111D+00 0.110D+01
 Gap=     0.723 Goal=   None    Shift=    0.000
 Gap=     0.618 Goal=   None    Shift=    0.000
 RMSDP=6.34D-06 MaxDP=4.86D-05 DE=-8.29D-08 OVMax= 1.02D-04

 Cycle   6  Pass 1  IDiag  1:
 E= -150.170519702586     Delta-E=       -0.000000021148 Rises=F Damp=F
 DIIS: error= 8.48D-06 at cycle   6 NSaved=   6.
 NSaved= 6 IEnMin= 6 EnMin= -150.170519702586     IErMin= 6 ErrMin= 8.48D-06
 ErrMax= 8.48D-06 EMaxC= 1.00D-01 BMatC= 5.05D-09 BMatP= 2.78D-08
 IDIUse=1 WtCom= 1.00D+00 WtEn= 0.00D+00
 Coeff-Com: -0.879D-03 0.173D-01-0.337D-01-0.170D+00 0.173D+00 0.101D+01
 Coeff:     -0.879D-03 0.173D-01-0.337D-01-0.170D+00 0.173D+00 0.101D+01
 Gap=     0.723 Goal=   None    Shift=    0.000
 Gap=     0.618 Goal=   None    Shift=    0.000
 RMSDP=2.22D-06 MaxDP=1.78D-05 DE=-2.11D-08 OVMax= 3.36D-05

 Cycle   7  Pass 1  IDiag  1:
 E= -150.170519705777     Delta-E=       -0.000000003192 Rises=F Damp=F
 DIIS: error= 4.48D-06 at cycle   7 NSaved=   7.
 NSaved= 7 IEnMin= 7 EnMin= -150.170519705777     IErMin= 7 ErrMin= 4.48D-06
 ErrMax= 4.48D-06 EMaxC= 1.00D-01 BMatC= 8.14D-10 BMatP= 5.05D-09
 IDIUse=1 WtCom= 1.00D+00 WtEn= 0.00D+00
 Coeff-Com: -0.143D-02-0.270D-03 0.397D-01-0.194D-01-0.160D+00-0.104D+00
 Coeff-Com:  0.125D+01
 Coeff:     -0.143D-02-0.270D-03 0.397D-01-0.194D-01-0.160D+00-0.104D+00
 Coeff:      0.125D+01
 Gap=     0.723 Goal=   None    Shift=    0.000
 Gap=     0.618 Goal=   None    Shift=    0.000
 RMSDP=8.82D-07 MaxDP=1.20D-05 DE=-3.19D-09 OVMax= 2.09D-05

 Cycle   8  Pass 1  IDiag  1:
 E= -150.170519706547     Delta-E=       -0.000000000770 Rises=F Damp=F
 DIIS: error= 2.15D-06 at cycle   8 NSaved=   8.
 NSaved= 8 IEnMin= 8 EnMin= -150.170519706547     IErMin= 8 ErrMin= 2.15D-06
 ErrMax= 2.15D-06 EMaxC= 1.00D-01 BMatC= 2.85D-10 BMatP= 8.14D-10
 IDIUse=1 WtCom= 1.00D+00 WtEn= 0.00D+00
 Coeff-Com:  0.139D-02-0.236D-02-0.305D-01 0.404D-01 0.143D+00-0.138D+00
 Coeff-Com: -0.113D+01 0.212D+01
 Coeff:      0.139D-02-0.236D-02-0.305D-01 0.404D-01 0.143D+00-0.138D+00
 Coeff:     -0.113D+01 0.212D+01
 Gap=     0.723 Goal=   None    Shift=    0.000
 Gap=     0.618 Goal=   None    Shift=    0.000
 RMSDP=8.05D-07 MaxDP=1.07D-05 DE=-7.70D-10 OVMax= 1.82D-05

 Cycle   9  Pass 1  IDiag  1:
 E= -150.170519706953     Delta-E=       -0.000000000405 Rises=F Damp=F
 DIIS: error= 8.65D-07 at cycle   9 NSaved=   9.
 NSaved= 9 IEnMin= 9 EnMin= -150.170519706953     IErMin= 9 ErrMin= 8.65D-07
 ErrMax= 8.65D-07 EMaxC= 1.00D-01 BMatC= 5.71D-11 BMatP= 2.85D-10
 IDIUse=1 WtCom= 1.00D+00 WtEn= 0.00D+00
 Coeff-Com: -0.445D-03 0.154D-02 0.651D-02-0.174D-01-0.399D-01 0.114D+00
 Coeff-Com:  0.318D+00-0.131D+01 0.193D+01
 Coeff:     -0.445D-03 0.154D-02 0.651D-02-0.174D-01-0.399D-01 0.114D+00
 Coeff:      0.318D+00-0.131D+01 0.193D+01
 Gap=     0.723 Goal=   None    Shift=    0.000
 Gap=     0.618 Goal=   None    Shift=    0.000
 RMSDP=5.32D-07 MaxDP=6.64D-06 DE=-4.05D-10 OVMax= 9.86D-06

 Cycle  10  Pass 1  IDiag  1:
 E= -150.170519707048     Delta-E=       -0.000000000096 Rises=F Damp=F
 DIIS: error= 2.81D-07 at cycle  10 NSaved=  10.
 NSaved=10 IEnMin=10 EnMin= -150.170519707048     IErMin=10 ErrMin= 2.81D-07
 ErrMax= 2.81D-07 EMaxC= 1.00D-01 BMatC= 5.36D-12 BMatP= 5.71D-11
 IDIUse=1 WtCom= 1.00D+00 WtEn= 0.00D+00
 Coeff-Com:  0.964D-04-0.497D-03-0.894D-03 0.534D-02 0.665D-02-0.431D-01
 Coeff-Com: -0.587D-01 0.469D+00-0.102D+01 0.164D+01
 Coeff:      0.964D-04-0.497D-03-0.894D-03 0.534D-02 0.665D-02-0.431D-01
 Coeff:     -0.587D-01 0.469D+00-0.102D+01 0.164D+01
 Gap=     0.723 Goal=   None    Shift=    0.000
 Gap=     0.618 Goal=   None    Shift=    0.000
 RMSDP=1.34D-07 MaxDP=1.74D-06 DE=-9.56D-11 OVMax= 2.18D-06

 Cycle  11  Pass 1  IDiag  1:
 E= -150.170519707055     Delta-E=       -0.000000000007 Rises=F Damp=F
 DIIS: error= 1.39D-07 at cycle  11 NSaved=  11.
 NSaved=11 IEnMin=11 EnMin= -150.170519707055     IErMin=11 ErrMin= 1.39D-07
 ErrMax= 1.39D-07 EMaxC= 1.00D-01 BMatC= 1.06D-12 BMatP= 5.36D-12
 IDIUse=1 WtCom= 1.00D+00 WtEn= 0.00D+00
 Coeff-Com: -0.265D-04 0.231D-03 0.350D-04-0.209D-02-0.278D-02 0.285D-01
 Coeff-Com:  0.696D-02-0.257D+00 0.694D+00-0.154D+01 0.207D+01
 Coeff:     -0.265D-04 0.231D-03 0.350D-04-0.209D-02-0.278D-02 0.285D-01
 Coeff:      0.696D-02-0.257D+00 0.694D+00-0.154D+01 0.207D+01
 Gap=     0.723 Goal=   None    Shift=    0.000
 Gap=     0.618 Goal=   None    Shift=    0.000
 RMSDP=5.66D-08 MaxDP=6.78D-07 DE=-6.59D-12 OVMax= 1.02D-06

 Cycle  12  Pass 1  IDiag  1:
 E= -150.170519707056     Delta-E=       -0.000000000002 Rises=F Damp=F
 DIIS: error= 6.00D-08 at cycle  12 NSaved=  12.
 NSaved=12 IEnMin=12 EnMin= -150.170519707056     IErMin=12 ErrMin= 6.00D-08
 ErrMax= 6.00D-08 EMaxC= 1.00D-01 BMatC= 1.43D-13 BMatP= 1.06D-12
 IDIUse=1 WtCom= 1.00D+00 WtEn= 0.00D+00
 Coeff-Com:  0.159D-05-0.100D-03 0.325D-03 0.469D-03-0.550D-03-0.102D-01
 Coeff-Com:  0.970D-02 0.827D-01-0.282D+00 0.748D+00-0.144D+01 0.189D+01
 Coeff:      0.159D-05-0.100D-03 0.325D-03 0.469D-03-0.550D-03-0.102D-01
 Coeff:      0.970D-02 0.827D-01-0.282D+00 0.748D+00-0.144D+01 0.189D+01
 Gap=     0.723 Goal=   None    Shift=    0.000
 Gap=     0.618 Goal=   None    Shift=    0.000
 RMSDP=2.45D-08 MaxDP=2.80D-07 DE=-1.53D-12 OVMax= 5.17D-07

 Cycle  13  Pass 1  IDiag  1:
 E= -150.170519707056     Delta-E=        0.000000000000 Rises=F Damp=F
 DIIS: error= 8.92D-09 at cycle  13 NSaved=  13.
 NSaved=13 IEnMin=13 EnMin= -150.170519707056     IErMin=13 ErrMin= 8.92D-09
 ErrMax= 8.92D-09 EMaxC= 1.00D-01 BMatC= 5.25D-15 BMatP= 1.43D-13
 IDIUse=1 WtCom= 1.00D+00 WtEn= 0.00D+00
 Coeff-Com: -0.670D-06 0.307D-04-0.111D-03-0.113D-03 0.295D-03 0.259D-02
 Coeff-Com: -0.385D-02-0.197D-01 0.753D-01-0.213D+00 0.458D+00-0.782D+00
 Coeff-Com:  0.148D+01
 Coeff:     -0.670D-06 0.307D-04-0.111D-03-0.113D-03 0.295D-03 0.259D-02
 Coeff:     -0.385D-02-0.197D-01 0.753D-01-0.213D+00 0.458D+00-0.782D+00
 Coeff:      0.148D+01
 Gap=     0.723 Goal=   None    Shift=    0.000
 Gap=     0.618 Goal=   None    Shift=    0.000
 RMSDP=3.69D-09 MaxDP=3.89D-08 DE=-2.27D-13 OVMax= 7.99D-08

 SCF Done:  E(UHF) =  -150.170519707     A.U. after   13 cycles
             Convg  =    0.3690D-08             -V/T =  2.0027
 <Sx>= 0.0000 <Sy>= 0.0000 <Sz>= 0.5000 <S**2>= 0.7594 S= 0.5047
 <L.S>= 0.000000000000E+00
 KE= 1.497673242319D+02 PE=-4.215442258738D+02 EE= 8.898472387441D+01
 Annihilation of the first spin contaminant:
 S**2 before annihilation     0.7594,   after     0.7501
 Leave Link  502 at Mon Apr 30 11:37:38 2018, MaxMem=  671088640 cpu:      82.0
 (Enter /shared/apps/gaussian/G09_LINUX_LINDA/g09/l701.exe)
 Compute integral first derivatives.
 ... and contract with generalized density number  0.
 Leave Link  701 at Mon Apr 30 11:37:39 2018, MaxMem=  671088640 cpu:       7.4
 (Enter /shared/apps/gaussian/G09_LINUX_LINDA/g09/l702.exe)
 L702 exits ... SP integral derivatives will be done elsewhere.
 Leave Link  702 at Mon Apr 30 11:37:39 2018, MaxMem=  671088640 cpu:       0.3
 (Enter /shared/apps/gaussian/G09_LINUX_LINDA/g09/l703.exe)
 Compute integral first derivatives, UseDBF=F ICtDFT=           0.
 Integral derivatives from FoFDir, PRISM(SPDF).
 Calling FoFJK, ICntrl=      2127 FMM=F ISym2X=1 I1Cent= 0 IOpClX= 1 NMat=1 NMatS=1 NMatT=0.
 FoFCou: FMM=F IPFlag=           0 FMFlag=      100000 FMFlg1=         800
         NFxFlg=           0 DoJE=F BraDBF=F KetDBF=F FulRan=T
         Omega=  0.000000  0.000000  1.000000  0.000000  0.000000 ICntrl=    2127 IOpCl=  1
         NMat0=    1 NMatS0=    1 NMatT0=    0 NMatD0=    1 NMtDS0=    0 NMtDT0=    0
         I1Cent=           0 NGrid=           0.
 Petite list used in FoFCou.
 Leave Link  703 at Mon Apr 30 11:37:40 2018, MaxMem=  671088640 cpu:       6.1
 (Enter /shared/apps/gaussian/G09_LINUX_LINDA/g09/l716.exe)
 Dipole        =-7.33211798D-01-3.79303407D-01 3.66387551D-32
 ***** Axes restored to original set *****
 -------------------------------------------------------------------
 Center     Atomic                   Forces (Hartrees/Bohr)
 Number     Number              X              Y              Z
 -------------------------------------------------------------------
      1        8          -0.001904881   -0.000060526    0.000000000
      2        8           0.001401666    0.001369295    0.000000000
      3        1           0.000503215   -0.001308769    0.000000000
 -------------------------------------------------------------------
 Cartesian Forces:  Max     0.001904881 RMS     0.001024043
 Leave Link  716 at Mon Apr 30 11:37:40 2018, MaxMem=  671088640 cpu:       0.4
 (Enter /shared/apps/gaussian/G09_LINUX_LINDA/g09/l103.exe)

 GradGradGradGradGradGradGradGradGradGradGradGradGradGradGradGradGradGrad
 Berny optimization.
 Using GDIIS optimizer.
 Internal  Forces:  Max     0.002269547 RMS     0.001665344
 Search for a local minimum.
 Step number   3 out of a maximum of   20
 All quantities printed in internal units (Hartrees-Bohrs-Radians)
 Swaping is turned off.
 Update second derivatives using D2CorX and points    1    2    3
 DE= -1.49D-05 DEPred=-3.58D-05 R= 4.16D-01
 Trust test= 4.16D-01 RLast= 1.99D-02 DXMaxT set to 3.00D-01
 The second derivative matrix:
                          R1        R2        A1
           R1           0.60187
           R2           0.00330   0.49303
           A1           0.09224   0.00524   0.29004
 ITU=  0  1  0
     Eigenvalues ---    0.26472   0.49295   0.62727
 DIIS coeff's:      0.60028      0.38157      0.01815
 Cosine:  1.000 >  0.840
 Length:  0.989
 GDIIS step was calculated using  3 of the last  3 vectors.
 Iteration  1 RMS(Cart)=  0.00482143 RMS(Int)=  0.00001158
 Iteration  2 RMS(Cart)=  0.00001027 RMS(Int)=  0.00000000
 Iteration  3 RMS(Cart)=  0.00000000 RMS(Int)=  0.00000000
 ClnCor:  largest displacement from symmetrization is 2.22D-16 for atom     1.
 Variable       Old X    -DE/DX   Delta X   Delta X   Delta X     New X
                                  (DIIS)     (GDIIS)  (Total)
    R1        2.47549  -0.00167   0.00086  -0.00246  -0.00161   2.47388
    R2        1.80070   0.00061   0.00065   0.00066   0.00131   1.80201
    A1        1.85081  -0.00227  -0.00761   0.00035  -0.00727   1.84355
         Item               Value     Threshold  Converged?
 Maximum Force            0.002270     0.000002     NO 
 RMS     Force            0.001665     0.000001     NO 
 Maximum Displacement     0.004803     0.000006     NO 
 RMS     Displacement     0.004827     0.000004     NO 
 Predicted change in Energy=-1.010391D-05
 GradGradGradGradGradGradGradGradGradGradGradGradGradGradGradGradGradGrad

 Leave Link  103 at Mon Apr 30 11:37:41 2018, MaxMem=  671088640 cpu:       9.1
 (Enter /shared/apps/gaussian/G09_LINUX_LINDA/g09/l202.exe)
                          Input orientation:                          
 ---------------------------------------------------------------------
 Center     Atomic      Atomic             Coordinates (Angstroms)
 Number     Number       Type             X           Y           Z
 ---------------------------------------------------------------------
      1          8           0        0.992600   -0.164108    0.000000
      2          8           0       -0.172781    0.432290    0.000000
      3          1           0       -0.819819   -0.268183    0.000000
 ---------------------------------------------------------------------
                    Distance matrix (angstroms):
                    1          2          3
     1  O    0.000000
     2  O    1.309123   0.000000
     3  H    1.815404   0.953583   0.000000
 Stoichiometry    HO2(2)
 Framework group  CS[SG(HO2)]
 Deg. of freedom     3
 Full point group                 CS      NOp   2
 Largest Abelian subgroup         CS      NOp   2
 Largest concise Abelian subgroup C1      NOp   1
                         Standard orientation:                         
 ---------------------------------------------------------------------
 Center     Atomic      Atomic             Coordinates (Angstroms)
 Number     Number       Type             X           Y           Z
 ---------------------------------------------------------------------
      1          8           0        0.054020    0.708176    0.000000
      2          8           0        0.054020   -0.600947    0.000000
      3          1           0       -0.864312   -0.857825    0.000000
 ---------------------------------------------------------------------
 Rotational constants (GHZ):    651.8426199     34.6948923     32.9415496
 Leave Link  202 at Mon Apr 30 11:37:41 2018, MaxMem=  671088640 cpu:       1.0
 (Enter /shared/apps/gaussian/G09_LINUX_LINDA/g09/l301.exe)
 Standard basis: 6-31G(d) (6D, 7F)
 Ernie: Thresh=  0.10000D-02 Tol=  0.10000D-05 Strict=F.
 There are    24 symmetry adapted basis functions of A'  symmetry.
 There are     8 symmetry adapted basis functions of A"  symmetry.
[...]
              Bcc     0.9266   -67.046   -23.924   -22.364  0.0000  0.0000  1.0000
 
              Baa    -0.0275   -14.676    -5.237    -4.895 -0.5637  0.8259  0.0000
     3 H(1)   Bbb    -0.0246   -13.116    -4.680    -4.375  0.0000  0.0000  1.0000
              Bcc     0.0521    27.791     9.917     9.270  0.8259  0.5637  0.0000
 

 ---------------------------------------------------------------------------------

 No NMR shielding tensors so no spin-rotation constants.
 Leave Link  601 at Mon Apr 30 11:39:01 2018, MaxMem=  671088640 cpu:      19.8
 (Enter /shared/apps/gaussian/G09_LINUX_LINDA/g09/l701.exe)
 Compute integral second derivatives.
 ... and contract with generalized density number  0.
 Leave Link  701 at Mon Apr 30 11:39:01 2018, MaxMem=  671088640 cpu:       6.5
 (Enter /shared/apps/gaussian/G09_LINUX_LINDA/g09/l702.exe)
 L702 exits ... SP integral derivatives will be done elsewhere.
 Leave Link  702 at Mon Apr 30 11:39:01 2018, MaxMem=  671088640 cpu:       0.3
 (Enter /shared/apps/gaussian/G09_LINUX_LINDA/g09/l703.exe)
 Compute integral second derivatives, UseDBF=F ICtDFT=           0.
 Integral derivatives from FoFDir, PRISM(SPDF).
 Calling FoFJK, ICntrl=    100127 FMM=F ISym2X=1 I1Cent= 0 IOpClX= 1 NMat=1 NMatS=1 NMatT=0.
 FoFCou: FMM=F IPFlag=           0 FMFlag=      100000 FMFlg1=         800
         NFxFlg=           0 DoJE=F BraDBF=F KetDBF=F FulRan=T
         Omega=  0.000000  0.000000  1.000000  0.000000  0.000000 ICntrl=  100127 IOpCl=  1
         NMat0=    1 NMatS0=    1 NMatT0=    0 NMatD0=    1 NMtDS0=    0 NMtDT0=    0
         I1Cent=           0 NGrid=           0.
 Petite list used in FoFCou.
 Leave Link  703 at Mon Apr 30 11:39:03 2018, MaxMem=  671088640 cpu:      11.4
 (Enter /shared/apps/gaussian/G09_LINUX_LINDA/g09/l716.exe)
 Dipole        =-7.33979693D-01-3.76978812D-01 1.79678763D-32
 Polarizability= 6.54810796D+00 1.45084014D+00 1.24027266D+01
                -2.32894811D-31-1.17923506D-30 4.60808415D+00
 HyperPolar    =-1.75426885D+01-9.73089007D+00-3.04120012D+00
                 2.24862517D+01 8.66705453D-31 2.46741108D-31
                 1.85142127D-31-2.38888024D-01-8.61752011D-01
                 1.21672987D-31
 Full mass-weighted force constant matrix:
 Low frequencies ---   -0.6244    0.0007    0.0016    0.0017    0.0497    1.8913
 Low frequencies --- 1250.9079 1622.8951 4014.7637
 Harmonic frequencies (cm**-1), IR intensities (KM/Mole), Raman scattering
 activities (A**4/AMU), depolarization ratios for plane and unpolarized
 incident light, reduced masses (AMU), force constants (mDyne/A),
 and normal coordinates:
                     1                      2                      3
                    A'                     A'                     A'
 Frequencies --  1250.9079              1622.8951              4014.7637
 Red. masses --    15.4553                 1.1195                 1.0682
 Frc consts  --    14.2488                 1.7373                10.1442
 IR Inten    --    44.8961                58.4736                55.5782
 Raman Activ --     3.6262                 5.0082                68.5249
 Depolar (P) --     0.2660                 0.6662                 0.3064
 Depolar (U) --     0.4203                 0.7996                 0.4690
  Atom  AN      X      Y      Z        X      Y      Z        X      Y      Z
     1   8    -0.01   0.69   0.00     0.05   0.04   0.00     0.00   0.00   0.00
     2   8     0.02  -0.70   0.00    -0.06   0.03   0.00     0.06   0.02   0.00
     3   1    -0.18   0.07   0.00     0.20  -0.98   0.00    -0.96  -0.25   0.00

 -------------------
 - Thermochemistry -
 -------------------
 Temperature   298.150 Kelvin.  Pressure   1.00000 Atm.
 Atom     1 has atomic number  8 and mass  15.99491
 Atom     2 has atomic number  8 and mass  15.99491
 Atom     3 has atomic number  1 and mass   1.00783
 Molecular mass:    32.99765 amu.
 Principal axes and moments of inertia in atomic units:
                           1         2         3
     Eigenvalues --     2.76773  51.99407  54.76179
           X            0.05941   0.99823   0.00000
           Y            0.99823  -0.05941   0.00000
           Z            0.00000   0.00000   1.00000
 This molecule is an asymmetric top.
 Rotational symmetry number  1.
 Rotational temperatures (Kelvin)     31.29419     1.66584     1.58165
 Rotational constants (GHZ):         652.06598    34.71052    32.95621
 Zero-point vibrational energy      41202.8 (Joules/Mol)
                                    9.84770 (Kcal/Mol)
 Vibrational temperatures:   1799.78  2334.98  5776.34
          (Kelvin)
 
 Zero-point correction=                           0.015693 (Hartree/Particle)
 Thermal correction to Energy=                    0.018542
 Thermal correction to Enthalpy=                  0.019487
 Thermal correction to Gibbs Free Energy=        -0.006431
 Sum of electronic and zero-point Energies=           -150.154837
 Sum of electronic and thermal Energies=              -150.151988
 Sum of electronic and thermal Enthalpies=            -150.151043
 Sum of electronic and thermal Free Energies=         -150.176961
 
                     E (Thermal)             CV                S
                      KCal/Mol        Cal/Mol-Kelvin    Cal/Mol-Kelvin
 Total                   11.636              6.184             54.549
 Electronic               0.000              0.000              1.377
 Translational            0.889              2.981             36.413
 Rotational               0.889              2.981             16.718
 Vibrational              9.858              0.222              0.040
                       Q            Log10(Q)             Ln(Q)
 Total Bot       0.908112D+03          2.958139          6.811368
 Total V=0       0.150157D+11         10.176545         23.432361
 Vib (Bot)       0.606465D-07         -7.217194        -16.618204
 Vib (V=0)       0.100279D+01          0.001212          0.002790
 Electronic      0.200000D+01          0.301030          0.693147
 Translational   0.745040D+07          6.872180         15.823779
 Rotational      0.100490D+04          3.002124          6.912646
 
                                                    Gaussian input prepared by AS
 E
                                                             IR Spectrum
 
     4                                                                           1           1                                       
     0                                                                           6           2                                       
     1                                                                           2           5                                       
     5                                                                           3           1                                       
 
     X                                                                           X           X                                       
     X                                                                           X           X                                       
     X                                                                           X           X                                       
     X                                                                           X           X                                       
     X                                                                           X           X                                       
     X                                                                           X           X                                       
     X                                                                           X           X                                       
     X                                                                           X           X                                       
     X                                                                           X           X                                       
     X                                                                           X           X                                       
     X                                                                           X           X                                       
     X                                                                           X           X                                       
     X                                                                           X           X                                       
     X                                                                           X           X                                       
     X                                                                           X           X                                       
     X                                                                           X                                                   
     X                                                                           X                                                   
     X                                                                           X                                                   
     X                                                                           X                                                   
                                                                                 X                                                   
 
 
                                                    Gaussian input prepared by AS
 E
                                                            Raman Spectrum
 
     4                                                                           1           1                                       
     0                                                                           6           2                                       
     1                                                                           2           5                                       
     5                                                                           3           1                                       
 
     X                                                                           X           X                                       
     X                                                                                                                               
     X                                                                                                                               
     X                                                                                                                               
     X                                                                                                                               
     X                                                                                                                               
     X                                                                                                                               
     X                                                                                                                               
     X                                                                                                                               
     X                                                                                                                               
     X                                                                                                                               
     X                                                                                                                               
     X                                                                                                                               
     X                                                                                                                               
     X                                                                                                                               
     X                                                                                                                               
     X                                                                                                                               
     X                                                                                                                               
     X                                                                                                                               
     X                                                                                                                               
 
 ***** Axes restored to original set *****
 -------------------------------------------------------------------
 Center     Atomic                   Forces (Hartrees/Bohr)
 Number     Number              X              Y              Z
 -------------------------------------------------------------------
      1        8           0.000000195   -0.000000007    0.000000000
      2        8          -0.000000301   -0.000000274    0.000000000
      3        1           0.000000106    0.000000281    0.000000000
 -------------------------------------------------------------------
 Cartesian Forces:  Max     0.000000301 RMS     0.000000181
 Force constants in Cartesian coordinates: 
                1             2             3             4             5 
      1  0.433348D+00
      2 -0.163286D+00  0.113592D+00
      3  0.000000D+00  0.000000D+00  0.000000D+00
      4 -0.373752D+00  0.185136D+00  0.000000D+00  0.625991D+00
      5  0.122483D+00 -0.144020D+00  0.000000D+00  0.989415D-01  0.530180D+00
      6  0.000000D+00  0.000000D+00  0.000000D+00  0.000000D+00  0.000000D+00
      7 -0.595966D-01 -0.218501D-01  0.000000D+00 -0.252239D+00 -0.221424D+00
      8  0.408033D-01  0.304283D-01  0.000000D+00 -0.284078D+00 -0.386159D+00
      9  0.000000D+00  0.000000D+00  0.000000D+00  0.000000D+00  0.000000D+00
                6             7             8             9 
      6  0.000000D+00
      7  0.000000D+00  0.311836D+00
      8  0.000000D+00  0.243274D+00  0.355731D+00
      9  0.000000D+00  0.000000D+00  0.000000D+00  0.000000D+00
 Force constants in internal coordinates: 
                1             2             3 
      1  0.499426D+00
      2  0.127477D-01  0.578032D+00
      3  0.845004D-01 -0.476751D-02  0.290659D+00
 Leave Link  716 at Mon Apr 30 11:39:03 2018, MaxMem=  671088640 cpu:       3.7
 (Enter /shared/apps/gaussian/G09_LINUX_LINDA/g09/l103.exe)

 GradGradGradGradGradGradGradGradGradGradGradGradGradGradGradGradGradGrad
 Berny optimization.
 Red2BG is reusing G-inverse.
 Internal  Forces:  Max     0.000000279 RMS     0.000000224
 Search for a local minimum.
 Step number   1 out of a maximum of    2
 All quantities printed in internal units (Hartrees-Bohrs-Radians)
 Swaping is turned off.
 Second derivative matrix not updated -- analytic derivatives used.
 The second derivative matrix:
                          R1        R2        A1
           R1           0.49943
           R2           0.01275   0.57803
           A1           0.08450  -0.00477   0.29066
 ITU=  0
     Eigenvalues ---    0.26050   0.52721   0.58040
 Angle between quadratic step and forces=  90.00 degrees.
 Linear search not attempted -- option 19 set.
 Iteration  1 RMS(Cart)=  0.00000043 RMS(Int)=  0.00000000
 ClnCor:  largest displacement from symmetrization is 2.48D-16 for atom     1.
 Variable       Old X    -DE/DX   Delta X   Delta X   Delta X     New X
                                 (Linear)    (Quad)   (Total)
    R1        2.47331   0.00000   0.00000   0.00000   0.00000   2.47331
    R2        1.80175   0.00000   0.00000   0.00000   0.00000   1.80175
    A1        1.84362   0.00000   0.00000   0.00000   0.00000   1.84362
         Item               Value     Threshold  Converged?
 Maximum Force            0.000000     0.000002     YES
 RMS     Force            0.000000     0.000001     YES
 Maximum Displacement     0.000000     0.000006     YES
 RMS     Displacement     0.000000     0.000004     YES
 Predicted change in Energy=-1.532670D-13
 Optimization completed.
    -- Stationary point found.
                           ----------------------------
                           !   Optimized Parameters   !
                           ! (Angstroms and Degrees)  !
 --------------------------                            --------------------------
 ! Name  Definition              Value          Derivative Info.                !
 --------------------------------------------------------------------------------
 ! R1    R(1,2)                  1.3088         -DE/DX =    0.0                 !
 ! R2    R(2,3)                  0.9534         -DE/DX =    0.0                 !
 ! A1    A(1,2,3)              105.6316         -DE/DX =    0.0                 !
 --------------------------------------------------------------------------------
 GradGradGradGradGradGradGradGradGradGradGradGradGradGradGradGradGradGrad

 Leave Link  103 at Mon Apr 30 11:39:04 2018, MaxMem=  671088640 cpu:       4.3
 (Enter /shared/apps/gaussian/G09_LINUX_LINDA/g09/l9999.exe)

 Test job not archived.
 1\1\GINC-COMPUTE-3-045\Freq\UHF\6-31G(d)\H1O2(2)\ROOT\30-Apr-2018\0\\#
 P Geom=AllCheck Guess=TCheck SCRF=Check Test GenChk UHF/6-31G(d) Freq\
 \Gaussian input prepared by ASE\\0,2\O,0.9924070835,-0.1640565385,0.\O
 ,-0.1727095329,0.4321933044,0.\H,-0.8196975506,-0.268136766,0.\\Versio
 n=EM64L-G09RevB.01\State=2-A"\HF=-150.17053\S2=0.759411\S2-1=0.\S2A=0.
 750064\RMSD=1.103e-09\RMSF=1.809e-07\ZeroPoint=0.0156933\Thermal=0.018
 5425\Dipole=-0.6699618,-0.4816539,0.\DipoleDeriv=0.3691253,-0.2774026,
 0.,-0.1450194,-0.0314554,0.,0.,0.,-0.0693803,-0.6429311,0.2857426,0.,0
 .1635659,-0.1951906,0.,0.,0.,-0.3536352,0.2738058,-0.0083399,0.,-0.018
 5465,0.2266461,0.,0.,0.,0.4230155\Polar=12.364432,-1.5256707,6.5864026
 ,0.,0.,4.6080841\PolarDeriv=5.4130129,-1.1311214,0.4150323,0.,0.,0.330
 5744,0.0592498,3.1026683,-2.4865329,0.,0.,-0.1622242,0.,0.,0.,2.826639
 2,-1.0341258,0.,0.0708273,3.4894133,0.6711361,0.,0.,-0.4246213,3.27722
 56,-0.3690088,5.2618756,0.,0.,0.0479208,0.,0.,0.,-1.5729366,1.6485397,
 0.,-5.4838401,-2.3582919,-1.0861684,0.,0.,0.094047,-3.3364754,-2.73365
 95,-2.7753427,0.,0.,0.1143034,0.,0.,0.,-1.2537026,-0.614414,0.\HyperPo
 lar=5.5172642,-18.4866286,-3.5396486,-5.6480924,0.,0.,0.,-0.8759633,0.
 1799232,0.\PG=CS [SG(H1O2)]\NImag=0\\0.43334823,-0.16328604,0.11359220
 ,0.,0.,-0.00000004,-0.37375166,0.18513616,0.,0.62599109,0.12248271,-0.
 14402045,0.,0.09894153,0.53017995,0.,0.,-0.00000007,0.,0.,0.00000028,-
 0.05959657,-0.02185012,0.,-0.25223942,-0.22142424,0.,0.31183599,0.0408
 0333,0.03042825,0.,-0.28407769,-0.38615949,0.,0.24327436,0.35573124,0.
 ,0.,0.00000011,0.,0.,-0.00000021,0.,0.,0.00000011\\-0.00000019,0.,0.,0
 .00000030,0.00000027,0.,-0.00000011,-0.00000028,0.\\\@


 I (ERNEST RUTHERFORD) CAME INTO THE ROOM, WHICH WAS HALF DARK, AND PRESENTLY
 SPOTTED LORD KELVIN IN THE AUDIENCE AND REALIZED I WAS IN TROUBLE AT
 THE LAST PART OF MY SPEECH DEALING THE AGE OF THE EARTH, WHERE MY VIEWS
 CONFLICTED WITH HIS.  TO MY RELIEF KELVIN FELL FAST ASLEEP, BUT AS I CAME
 TO THE IMPORTANT POINT, I SAW THE OLD BIRD SIT UP AND COCK A BALEFUL GLANCE
 AT ME! THEN A SUDDEN INSPIRATION CAME AND I SAID LORD KELVIN HAD LIMITED
 THE AGE OF THE EARTH PROVIDED NO NEW SOURCE WAS DISCOVERED. THAT
 PROPHETIC UTTERANCE REFERS TO WHAT WE ARE NOW CONSIDERING TONIGHT, RADIUM!
 BEHOLD!  THE OLD BOY BEAMED UPON ME.
 Job cpu time:  0 days  0 hours  5 minutes 41.2 seconds.
 File lengths (MBytes):  RWF=     46 Int=      0 D2E=      0 Chk=      1 Scr=      1
 Normal termination of Gaussian 09 at Mon Apr 30 11:39:04 2018.
