 Entering Gaussian System, Link 0=g09
 Initial command:
 /shared/apps/gaussian/G09_LINUX_LINDA/g09/l1.exe /home/harms.n/Code/AutoTST/ipython_notebooks/Gau-21454.inp -scrdir=/home/harms.n/Code/AutoTST/ipython_notebooks/
 Entering Link 1 = /shared/apps/gaussian/G09_LINUX_LINDA/g09/l1.exe PID=     21455.
  
 Copyright (c) 1988,1990,1992,1993,1995,1998,2003,2009,2010,
            Gaussian, Inc.  All Rights Reserved.
  
 This is part of the Gaussian(R) 09 program.  It is based on
 the Gaussian(R) 03 system (copyright 2003, Gaussian, Inc.),
 the Gaussian(R) 98 system (copyright 1998, Gaussian, Inc.),
 the Gaussian(R) 94 system (copyright 1995, Gaussian, Inc.),
 the Gaussian 92(TM) system (copyright 1992, Gaussian, Inc.),
 the Gaussian 90(TM) system (copyright 1990, Gaussian, Inc.),
 the Gaussian 88(TM) system (copyright 1988, Gaussian, Inc.),
 the Gaussian 86(TM) system (copyright 1986, Carnegie Mellon
 University), and the Gaussian 82(TM) system (copyright 1983,
 Carnegie Mellon University). Gaussian is a federally registered
 trademark of Gaussian, Inc.
  
 This software contains proprietary and confidential information,
 including trade secrets, belonging to Gaussian, Inc.
  
 This software is provided under written license and may be
 used, copied, transmitted, or stored only in accord with that
 written license.
  
 The following legend is applicable only to US Government
 contracts under FAR:
  
                    RESTRICTED RIGHTS LEGEND
  
 Use, reproduction and disclosure by the US Government is
 subject to restrictions as set forth in subparagraphs (a)
 and (c) of the Commercial Computer Software - Restricted
 Rights clause in FAR 52.227-19.
  
 Gaussian, Inc.
 340 Quinnipiac St., Bldg. 40, Wallingford CT 06492
  
  
 ---------------------------------------------------------------
 Warning -- This program may not be used in any manner that
 competes with the business of Gaussian, Inc. or will provide
 assistance to any competitor of Gaussian, Inc.  The licensee
 of this program is prohibited from giving any competitor of
 Gaussian, Inc. access to this program.  By using this program,
 the user acknowledges that Gaussian, Inc. is engaged in the
 business of creating and licensing software in the field of
 computational chemistry and represents and warrants to the
 licensee that it is not a competitor of Gaussian, Inc. and that
 it will not use this program in any manner prohibited above.
 ---------------------------------------------------------------
  

 Cite this work as:
 Gaussian 09, Revision B.01,
 M. J. Frisch, G. W. Trucks, H. B. Schlegel, G. E. Scuseria, 
 M. A. Robb, J. R. Cheeseman, G. Scalmani, V. Barone, B. Mennucci, 
 G. A. Petersson, H. Nakatsuji, M. Caricato, X. Li, H. P. Hratchian, 
 A. F. Izmaylov, J. Bloino, G. Zheng, J. L. Sonnenberg, M. Hada, 
 M. Ehara, K. Toyota, R. Fukuda, J. Hasegawa, M. Ishida, T. Nakajima, 
 Y. Honda, O. Kitao, H. Nakai, T. Vreven, J. A. Montgomery, Jr., 
 J. E. Peralta, F. Ogliaro, M. Bearpark, J. J. Heyd, E. Brothers, 
 K. N. Kudin, V. N. Staroverov, T. Keith, R. Kobayashi, J. Normand, 
 K. Raghavachari, A. Rendell, J. C. Burant, S. S. Iyengar, J. Tomasi, 
 M. Cossi, N. Rega, J. M. Millam, M. Klene, J. E. Knox, J. B. Cross, 
 V. Bakken, C. Adamo, J. Jaramillo, R. Gomperts, R. E. Stratmann, 
 O. Yazyev, A. J. Austin, R. Cammi, C. Pomelli, J. W. Ochterski, 
 R. L. Martin, K. Morokuma, V. G. Zakrzewski, G. A. Voth, 
 P. Salvador, J. J. Dannenberg, S. Dapprich, A. D. Daniels, 
 O. Farkas, J. B. Foresman, J. V. Ortiz, J. Cioslowski, 
 and D. J. Fox, Gaussian, Inc., Wallingford CT, 2010.
 
 ******************************************
 Gaussian 09:  EM64L-G09RevB.01 12-Aug-2010
                30-Apr-2018 
 ******************************************
 %nprocshared=20
 Will use up to   20 processors via shared memory.
 %mem=5GB
 -----------------------------------------------
 #p hf/6-31g* Opt=(ModRedun,Loose) Int(Grid=SG1)
 -----------------------------------------------
 1/7=-1,18=120,19=15,38=1/1,3;
 2/9=110,12=2,17=6,18=5,40=1/2;
 3/5=1,6=6,7=1,11=9,16=1,25=1,30=1,71=1,75=1/1,2,3;
 4//1;
 5/5=2,38=5/2;
 6/7=2,8=2,9=2,10=2,28=1/1;
 7//1,2,3,16;
 1/7=-1,18=20,19=15/3(2);
 2/9=110/2;
 99//99;
 2/9=110/2;
 3/5=1,6=6,7=1,11=9,16=1,25=1,30=1,71=1,75=1/1,2,3;
 4/5=5,16=3/1;
 5/5=2,38=5/2;
 7//1,2,3,16;
 1/7=-1,18=20,19=15/3(-5);
 2/9=110/2;
 6/7=2,8=2,9=2,10=2,19=2,28=1/1;
 99/9=1/99;
 Leave Link    1 at Mon Apr 30 11:55:34 2018, MaxMem=  671088640 cpu:       1.1
 (Enter /shared/apps/gaussian/G09_LINUX_LINDA/g09/l101.exe)
 ------------------------------
 Gaussian input prepared by ASE
 ------------------------------
 Symbolic Z-matrix:
 Charge =  0 Multiplicity = 2
 O                    -2.6943   -0.0049    0.1334 
 O                    -3.4761   -1.0578    0.0242 
 C                     0.3373    0.5562   -0.985 
 C                     0.988    -0.1118   -0.0102 
 C                    -0.8219    1.4737   -0.7225 
 C                     0.5888    0.0224    1.4403 
 C                     2.1386   -1.0073   -0.3899 
 H                    -2.9758   -1.7857    0.472 
 H                     0.6556    0.4338   -2.0174 
 H                    -1.8047    0.809    -0.165 
 H                    -1.1838    1.901    -1.6811 
 H                    -0.5085    2.3076   -0.0602 
 H                     0.6792    1.0811    1.7621 
 H                    -0.4591   -0.3171    1.5781 
 H                     1.2367   -0.5919    2.0994 
 H                     2.928    -0.4105   -0.8941 
 H                     2.5877   -1.4978    0.4986 
 H                     1.7844   -1.7998   -1.0827 
 
 NAtoms=     18 NQM=     18 NQMF=      0 NMic=      0 NMicF=      0 NTot=     18.
 The following ModRedundant input section has been read:
 B       1       5 F                                                           
 B       1      10 F                                                           
 B       5      10 F                                                           
                    Isotopes and Nuclear Properties:
 (Nuclear quadrupole moments (NQMom) in fm**2, nuclear magnetic moments (NMagM)
  in nuclear magnetons)

  Atom         1           2           3           4           5           6           7           8           9          10
 IAtWgt=          16          16          12          12          12          12          12           1           1           1
 AtmWgt=  15.9949146  15.9949146  12.0000000  12.0000000  12.0000000  12.0000000  12.0000000   1.0078250   1.0078250   1.0078250
 NucSpn=           0           0           0           0           0           0           0           1           1           1
 AtZEff=   0.0000000   0.0000000   0.0000000   0.0000000   0.0000000   0.0000000   0.0000000   0.0000000   0.0000000   0.0000000
 NQMom=    0.0000000   0.0000000   0.0000000   0.0000000   0.0000000   0.0000000   0.0000000   0.0000000   0.0000000   0.0000000
 NMagM=    0.0000000   0.0000000   0.0000000   0.0000000   0.0000000   0.0000000   0.0000000   2.7928460   2.7928460   2.7928460

  Atom        11          12          13          14          15          16          17          18
 IAtWgt=           1           1           1           1           1           1           1           1
 AtmWgt=   1.0078250   1.0078250   1.0078250   1.0078250   1.0078250   1.0078250   1.0078250   1.0078250
 NucSpn=           1           1           1           1           1           1           1           1
 AtZEff=   0.0000000   0.0000000   0.0000000   0.0000000   0.0000000   0.0000000   0.0000000   0.0000000
 NQMom=    0.0000000   0.0000000   0.0000000   0.0000000   0.0000000   0.0000000   0.0000000   0.0000000
 NMagM=    2.7928460   2.7928460   2.7928460   2.7928460   2.7928460   2.7928460   2.7928460   2.7928460
 Leave Link  101 at Mon Apr 30 11:55:35 2018, MaxMem=  671088640 cpu:       1.2
 (Enter /shared/apps/gaussian/G09_LINUX_LINDA/g09/l103.exe)

 GradGradGradGradGradGradGradGradGradGradGradGradGradGradGradGradGradGrad
 Berny optimization.
 Initialization pass.
                           ----------------------------
                           !    Initial Parameters    !
                           ! (Angstroms and Degrees)  !
 --------------------------                            --------------------------
 ! Name  Definition              Value          Derivative Info.                !
 --------------------------------------------------------------------------------
 ! R1    R(1,2)                  1.316          estimate D2E/DX2                !
 ! R2    R(1,5)                  2.5347         Frozen                          !
 ! R3    R(1,10)                 1.2421         Frozen                          !
 ! R4    R(2,8)                  0.9903         estimate D2E/DX2                !
 ! R5    R(3,4)                  1.349          estimate D2E/DX2                !
 ! R6    R(3,5)                  1.5015         estimate D2E/DX2                !
 ! R7    R(3,9)                  1.0873         estimate D2E/DX2                !
 ! R8    R(4,6)                  1.5104         estimate D2E/DX2                !
 ! R9    R(4,7)                  1.5066         estimate D2E/DX2                !
 ! R10   R(5,10)                 1.3109         Frozen                          !
 ! R11   R(5,11)                 1.1102         estimate D2E/DX2                !
 ! R12   R(5,12)                 1.1101         estimate D2E/DX2                !
 ! R13   R(6,13)                 1.1102         estimate D2E/DX2                !
 ! R14   R(6,14)                 1.1101         estimate D2E/DX2                !
 ! R15   R(6,15)                 1.1098         estimate D2E/DX2                !
 ! R16   R(7,16)                 1.1106         estimate D2E/DX2                !
 ! R17   R(7,17)                 1.1098         estimate D2E/DX2                !
 ! R18   R(7,18)                 1.1106         estimate D2E/DX2                !
 ! A1    A(2,1,10)             158.4068         estimate D2E/DX2                !
 ! A2    A(1,2,8)              104.5038         estimate D2E/DX2                !
 ! A3    A(4,3,5)              123.2739         estimate D2E/DX2                !
 ! A4    A(4,3,9)              119.2866         estimate D2E/DX2                !
 ! A5    A(5,3,9)              117.4395         estimate D2E/DX2                !
 ! A6    A(3,4,6)              121.4971         estimate D2E/DX2                !
 ! A7    A(3,4,7)              118.7226         estimate D2E/DX2                !
 ! A8    A(6,4,7)              119.7802         estimate D2E/DX2                !
 ! A9    A(3,5,10)             110.0785         estimate D2E/DX2                !
 ! A10   A(3,5,11)             109.6279         estimate D2E/DX2                !
 ! A11   A(3,5,12)             110.2051         estimate D2E/DX2                !
 ! A12   A(10,5,11)            108.5408         estimate D2E/DX2                !
 ! A13   A(10,5,12)            109.8056         estimate D2E/DX2                !
 ! A14   A(11,5,12)            108.5461         estimate D2E/DX2                !
 ! A15   A(4,6,13)             109.9723         estimate D2E/DX2                !
 ! A16   A(4,6,14)             109.9698         estimate D2E/DX2                !
 ! A17   A(4,6,15)             111.5229         estimate D2E/DX2                !
 ! A18   A(13,6,14)            109.4217         estimate D2E/DX2                !
 ! A19   A(13,6,15)            107.9493         estimate D2E/DX2                !
 ! A20   A(14,6,15)            107.9444         estimate D2E/DX2                !
 ! A21   A(4,7,16)             109.7442         estimate D2E/DX2                !
 ! A22   A(4,7,17)             111.7131         estimate D2E/DX2                !
 ! A23   A(4,7,18)             109.7411         estimate D2E/DX2                !
 ! A24   A(16,7,17)            108.2587         estimate D2E/DX2                !
 ! A25   A(16,7,18)            109.0819         estimate D2E/DX2                !
 ! A26   A(17,7,18)            108.245          estimate D2E/DX2                !
 ! A27   A(1,10,5)             166.2488         estimate D2E/DX2                !
 ! D1    D(10,1,2,8)            89.288          estimate D2E/DX2                !
 ! D2    D(2,1,10,5)            -2.7657         estimate D2E/DX2                !
 ! D3    D(5,3,4,6)             -0.1247         estimate D2E/DX2                !
 ! D4    D(5,3,4,7)            179.965          estimate D2E/DX2                !
 ! D5    D(9,3,4,6)            179.9394         estimate D2E/DX2                !
 ! D6    D(9,3,4,7)              0.0291         estimate D2E/DX2                !
 ! D7    D(4,3,5,10)           -60.6308         estimate D2E/DX2                !
 ! D8    D(4,3,5,11)          -179.9582         estimate D2E/DX2                !
 ! D9    D(4,3,5,12)            60.6299         estimate D2E/DX2                !
 ! D10   D(9,3,5,10)           119.3062         estimate D2E/DX2                !
 ! D11   D(9,3,5,11)            -0.0212         estimate D2E/DX2                !
 ! D12   D(9,3,5,12)          -119.4331         estimate D2E/DX2                !
 ! D13   D(3,4,6,13)           -59.8981         estimate D2E/DX2                !
 ! D14   D(3,4,6,14)            60.6651         estimate D2E/DX2                !
 ! D15   D(3,4,6,15)          -179.6204         estimate D2E/DX2                !
 ! D16   D(7,4,6,13)           120.0113         estimate D2E/DX2                !
 ! D17   D(7,4,6,14)          -119.4256         estimate D2E/DX2                !
 ! D18   D(7,4,6,15)             0.289          estimate D2E/DX2                !
 ! D19   D(3,4,7,16)            59.9255         estimate D2E/DX2                !
 ! D20   D(3,4,7,17)          -179.9931         estimate D2E/DX2                !
 ! D21   D(3,4,7,18)           -59.9311         estimate D2E/DX2                !
 ! D22   D(6,4,7,16)          -119.9863         estimate D2E/DX2                !
 ! D23   D(6,4,7,17)             0.095          estimate D2E/DX2                !
 ! D24   D(6,4,7,18)           120.157          estimate D2E/DX2                !
 ! D25   D(3,5,10,1)           -51.5146         estimate D2E/DX2                !
 ! D26   D(11,5,10,1)           68.4734         estimate D2E/DX2                !
 ! D27   D(12,5,10,1)         -173.0137         estimate D2E/DX2                !
 --------------------------------------------------------------------------------
 Trust Radius=3.00D-01 FncErr=1.00D-07 GrdErr=1.00D-07
 Number of steps in this run=     82 maximum allowed number of steps=    108.
 GradGradGradGradGradGradGradGradGradGradGradGradGradGradGradGradGradGrad

 Leave Link  103 at Mon Apr 30 11:55:35 2018, MaxMem=  671088640 cpu:       0.2
 (Enter /shared/apps/gaussian/G09_LINUX_LINDA/g09/l202.exe)
                          Input orientation:                          
 ---------------------------------------------------------------------
 Center     Atomic      Atomic             Coordinates (Angstroms)
 Number     Number       Type             X           Y           Z
 ---------------------------------------------------------------------
      1          8           0       -2.694300   -0.004900    0.133400
      2          8           0       -3.476100   -1.057800    0.024200
      3          6           0        0.337300    0.556200   -0.985000
      4          6           0        0.988000   -0.111800   -0.010200
      5          6           0       -0.821900    1.473700   -0.722500
      6          6           0        0.588800    0.022400    1.440300
      7          6           0        2.138600   -1.007300   -0.389900
      8          1           0       -2.975800   -1.785700    0.472000
      9          1           0        0.655600    0.433800   -2.017400
     10          1           0       -1.804700    0.809000   -0.165000
     11          1           0       -1.183800    1.901000   -1.681100
     12          1           0       -0.508500    2.307600   -0.060200
     13          1           0        0.679200    1.081100    1.762100
     14          1           0       -0.459100   -0.317100    1.578100
     15          1           0        1.236700   -0.591900    2.099400
     16          1           0        2.928000   -0.410500   -0.894100
     17          1           0        2.587700   -1.497800    0.498600
     18          1           0        1.784400   -1.799800   -1.082700
 ---------------------------------------------------------------------
                    Distance matrix (angstroms):
                    1          2          3          4          5
     1  O    0.000000
     2  O    1.315954   0.000000
     3  C    3.279672   4.262100   0.000000
     4  C    3.686649   4.563364   1.349025   0.000000
     5  C    2.534700   3.743104   1.501485   2.509366   0.000000
     6  C    3.533763   4.437971   2.496052   1.510404   2.962102
     7  C    4.963423   5.630176   2.458324   1.506643   3.876925
     8  H    1.834432   0.990284   4.310914   4.329685   4.085316
     9  H    4.005025   4.843960   1.087266   2.106424   2.222873
    10  H    1.242121   2.512830   2.307482   2.944658   1.310926
    11  H    3.034217   4.113051   2.146343   3.399998   1.110167
    12  H    3.187924   4.487727   2.153610   2.845261   1.110068
    13  H    3.900328   4.986152   2.817619   2.158568   2.929279
    14  H    2.679691   3.473547   2.822479   2.158459   2.937916
    15  H    4.434240   5.170493   3.411829   2.177788   4.058036
    16  H    5.729793   6.501905   2.766676   2.152696   4.200167
    17  H    5.501059   6.098223   3.388847   2.176905   4.684685
    18  H    4.975874   5.426661   2.766655   2.152639   4.199803
                    6          7          8          9         10
     6  C    0.000000
     7  C    2.609941   0.000000
     8  H    4.112567   5.244603   0.000000
     9  H    3.482729   2.631504   4.930554   0.000000
    10  H    2.987402   4.347314   2.917141   3.102457   0.000000
    11  H    4.051467   4.600407   4.630212   2.376797   1.968893
    12  H    2.945795   4.254927   4.808941   2.949049   1.984167
    13  H    1.110213   3.335021   4.820988   3.834602   3.155553
    14  H    1.110110   3.331283   3.116733   3.838493   2.473285
    15  H    1.109753   2.680036   4.671054   4.282263   4.042294
    16  H    3.332969   1.110649   6.213876   2.671787   4.941378
    17  H    2.682053   1.109826   5.571008   3.714074   5.005484
    18  H    3.333977   1.110624   5.007674   2.671483   4.530966
                   11         12         13         14         15
    11  H    0.000000
    12  H    1.802407   0.000000
    13  H    3.999829   2.497141   0.000000
    14  H    4.008434   3.094433   1.812332   0.000000
    15  H    5.134740   4.014560   1.795413   1.795273   0.000000
    16  H    4.782186   4.460156   3.786472   4.194394   3.443028
    17  H    5.525138   4.937589   3.448120   3.441273   2.282196
    18  H    4.781654   4.813900   4.196896   3.783061   3.447428
                   16         17         18
    16  H    0.000000
    17  H    1.799344   0.000000
    18  H    1.809294   1.799168   0.000000
 Stoichiometry    C5H11O2(2)
 Framework group  C1[X(C5H11O2)]
 Deg. of freedom    48
 Full point group                 C1      NOp   1
 Largest Abelian subgroup         C1      NOp   1
 Largest concise Abelian subgroup C1      NOp   1
                         Standard orientation:                         
 ---------------------------------------------------------------------
 Center     Atomic      Atomic             Coordinates (Angstroms)
 Number     Number       Type             X           Y           Z
 ---------------------------------------------------------------------
      1          8           0       -2.222657   -0.019965    0.138617
      2          8           0       -3.010523   -0.812439   -0.556356
      3          6           0        0.836357    1.018023   -0.428187
      4          6           0        1.460862   -0.095747    0.006988
      5          6           0       -0.320620    1.648410    0.291864
      6          6           0        1.032221   -0.796698    1.274370
      7          6           0        2.611896   -0.641638   -0.797436
      8          1           0       -2.525736   -1.675221   -0.591734
      9          1           0        1.175384    1.494110   -1.345001
     10          1           0       -1.320356    0.803483    0.363670
     11          1           0       -0.658702    2.549051   -0.262228
     12          1           0       -0.014500    1.956584    1.313416
     13          1           0        1.124421   -0.106603    2.139148
     14          1           0       -0.021085   -1.135085    1.182808
     15          1           0        1.661032   -1.687829    1.479391
     16          1           0        3.416602    0.120774   -0.866110
     17          1           0        3.038121   -1.556463   -0.335764
     18          1           0        2.265967   -0.897668   -1.821285
 ---------------------------------------------------------------------
 Rotational constants (GHZ):      3.5133313      1.1336415      1.0410184
 Leave Link  202 at Mon Apr 30 11:55:35 2018, MaxMem=  671088640 cpu:       1.0
 (Enter /shared/apps/gaussian/G09_LINUX_LINDA/g09/l301.exe)
 Standard basis: 6-31G(d) (6D, 7F)
 Ernie: Thresh=  0.10000D-02 Tol=  0.10000D-05 Strict=F.
 There are   127 symmetry adapted basis functions of A   symmetry.
 Integral buffers will be    131072 words long.
 Raffenetti 2 integral format.
 Two-electron integral symmetry is turned on.
   127 basis functions,   240 primitive gaussians,   127 cartesian basis functions
    29 alpha electrons       28 beta electrons
       nuclear repulsion energy       299.2573916041 Hartrees.
 IExCor=    0 DFT=F Ex=HF Corr=None ExCW=0 ScaHFX=  1.000000
 ScaDFX=  1.000000  1.000000  1.000000  1.000000 ScalE2=  1.000000  1.000000
 IRadAn=      1 IRanWt=     -1 IRanGd=            0 ICorTp=0
 NAtoms=   18 NActive=   18 NUniq=   18 SFac= 1.00D+00 NAtFMM=   50 NAOKFM=F Big=F
 Leave Link  301 at Mon Apr 30 11:55:35 2018, MaxMem=  671088640 cpu:       1.0
 (Enter /shared/apps/gaussian/G09_LINUX_LINDA/g09/l302.exe)
 NPDir=0 NMtPBC=     1 NCelOv=     1 NCel=       1 NClECP=     1 NCelD=      1
         NCelK=      1 NCelE2=     1 NClLst=     1 CellRange=     0.0.
 One-electron integrals computed using PRISM.
 NBasis=   127 RedAO= T  NBF=   127
 NBsUse=   127 1.00D-06 NBFU=   127
 Leave Link  302 at Mon Apr 30 11:55:36 2018, MaxMem=  671088640 cpu:       6.0
 (Enter /shared/apps/gaussian/G09_LINUX_LINDA/g09/l303.exe)
 DipDrv:  MaxL=1.
 Leave Link  303 at Mon Apr 30 11:55:36 2018, MaxMem=  671088640 cpu:       1.6
 (Enter /shared/apps/gaussian/G09_LINUX_LINDA/g09/l401.exe)
 Harris functional with IExCor=  205 diagonalized for initial guess.
 ExpMin= 1.61D-01 ExpMax= 5.48D+03 ExpMxC= 8.25D+02 IAcc=1 IRadAn=         1 AccDes= 0.00D+00
 HarFok:  IExCor=  205 AccDes= 0.00D+00 IRadAn=         1 IDoV= 1
 ScaDFX=  1.000000  1.000000  1.000000  1.000000
 FoFCou: FMM=F IPFlag=           0 FMFlag=      100000 FMFlg1=           0
         NFxFlg=           0 DoJE=T BraDBF=F KetDBF=T FulRan=T
         Omega=  0.000000  0.000000  1.000000  0.000000  0.000000 ICntrl=     500 IOpCl=  0
         NMat0=    1 NMatS0=    1 NMatT0=    0 NMatD0=    1 NMtDS0=    0 NMtDT0=    0
         I1Cent=           4 NGrid=           0.
 Petite list used in FoFCou.
 Harris En= -345.767970789730    
 Initial guess orbital symmetries:
 Alpha Orbitals:
       Occupied  (A) (A) (A) (A) (A) (A) (A) (A) (A) (A) (A) (A)
                 (A) (A) (A) (A) (A) (A) (A) (A) (A) (A) (A) (A)
                 (A) (A) (A) (A) (A)
       Virtual   (A) (A) (A) (A) (A) (A) (A) (A) (A) (A) (A) (A)
                 (A) (A) (A) (A) (A) (A) (A) (A) (A) (A) (A) (A)
                 (A) (A) (A) (A) (A) (A) (A) (A) (A) (A) (A) (A)
                 (A) (A) (A) (A) (A) (A) (A) (A) (A) (A) (A) (A)
                 (A) (A) (A) (A) (A) (A) (A) (A) (A) (A) (A) (A)
                 (A) (A) (A) (A) (A) (A) (A) (A) (A) (A) (A) (A)
                 (A) (A) (A) (A) (A) (A) (A) (A) (A) (A) (A) (A)
                 (A) (A) (A) (A) (A) (A) (A) (A) (A) (A) (A) (A)
                 (A) (A)
 Beta  Orbitals:
       Occupied  (A) (A) (A) (A) (A) (A) (A) (A) (A) (A) (A) (A)
                 (A) (A) (A) (A) (A) (A) (A) (A) (A) (A) (A) (A)
                 (A) (A) (A) (A)
       Virtual   (A) (A) (A) (A) (A) (A) (A) (A) (A) (A) (A) (A)
                 (A) (A) (A) (A) (A) (A) (A) (A) (A) (A) (A) (A)
                 (A) (A) (A) (A) (A) (A) (A) (A) (A) (A) (A) (A)
                 (A) (A) (A) (A) (A) (A) (A) (A) (A) (A) (A) (A)
                 (A) (A) (A) (A) (A) (A) (A) (A) (A) (A) (A) (A)
                 (A) (A) (A) (A) (A) (A) (A) (A) (A) (A) (A) (A)
                 (A) (A) (A) (A) (A) (A) (A) (A) (A) (A) (A) (A)
                 (A) (A) (A) (A) (A) (A) (A) (A) (A) (A) (A) (A)
                 (A) (A) (A)
 The electronic state of the initial guess is 2-A.
 Initial guess <Sx>= 0.0000 <Sy>= 0.0000 <Sz>= 0.5000 <S**2>= 0.7500 S= 0.5000
 Leave Link  401 at Mon Apr 30 11:55:39 2018, MaxMem=  671088640 cpu:      23.5
 (Enter /shared/apps/gaussian/G09_LINUX_LINDA/g09/l502.exe)
 UHF open shell SCF:
 Requested convergence on RMS density matrix=1.00D-08 within 128 cycles.
 Requested convergence on MAX density matrix=1.00D-06.
 Requested convergence on             energy=1.00D-06.
 No special actions if energy rises.
 Using DIIS extrapolation, IDIIS=  1040.
 Integral symmetry usage will be decided dynamically.
 Keep R1 and R2 ints in memory in canonical form, NReq=67191093.
 IEnd=       70048 IEndB=       70048 NGot=   671088640 MDV=   604978949
 LenX=   604978949 LenY=   604962379
 Symmetry not used in FoFDir.
 MinBra= 0 MaxBra= 2 Meth= 1.
 IRaf=       0 NMat=   1 IRICut=       1 DoRegI=T DoRafI=F ISym2E= 0 JSym2E=0.

 Cycle   1  Pass 1  IDiag  1:
 E= -344.803410569158    
 DIIS: error= 5.47D-02 at cycle   1 NSaved=   1.
 NSaved= 1 IEnMin= 1 EnMin= -344.803410569158     IErMin= 1 ErrMin= 5.47D-02
 ErrMax= 5.47D-02 EMaxC= 1.00D-01 BMatC= 2.09D+00 BMatP= 2.09D+00
 IDIUse=3 WtCom= 4.53D-01 WtEn= 5.47D-01
 Coeff-Com:  0.100D+01
 Coeff-En:   0.100D+01
 Coeff:      0.100D+01
 Gap=     0.849 Goal=   None    Shift=    0.000
 Gap=     0.532 Goal=   None    Shift=    0.000
 GapD=    0.532 DampG=2.000 DampE=0.500 DampFc=1.0000 IDamp=-1.
 RMSDP=6.30D-03 MaxDP=1.15D-01              OVMax= 1.60D-01

 Cycle   2  Pass 1  IDiag  1:
 E= -345.130423796486     Delta-E=       -0.327013227328 Rises=F Damp=F
 DIIS: error= 2.01D-02 at cycle   2 NSaved=   2.
 NSaved= 2 IEnMin= 2 EnMin= -345.130423796486     IErMin= 2 ErrMin= 2.01D-02
 ErrMax= 2.01D-02 EMaxC= 1.00D-01 BMatC= 2.83D-01 BMatP= 2.09D+00
 IDIUse=3 WtCom= 7.99D-01 WtEn= 2.01D-01
 Coeff-Com:  0.202D+00 0.798D+00
 Coeff-En:   0.000D+00 0.100D+01
 Coeff:      0.161D+00 0.839D+00
 Gap=     0.506 Goal=   None    Shift=    0.000
 Gap=     0.369 Goal=   None    Shift=    0.000
 RMSDP=2.90D-03 MaxDP=4.09D-02 DE=-3.27D-01 OVMax= 9.81D-02

 Cycle   3  Pass 1  IDiag  1:
 E= -345.195750009668     Delta-E=       -0.065326213182 Rises=F Damp=F
 DIIS: error= 1.57D-02 at cycle   3 NSaved=   3.
 NSaved= 3 IEnMin= 3 EnMin= -345.195750009668     IErMin= 3 ErrMin= 1.57D-02
 ErrMax= 1.57D-02 EMaxC= 1.00D-01 BMatC= 2.54D-02 BMatP= 2.83D-01
 IDIUse=3 WtCom= 8.43D-01 WtEn= 1.57D-01
 Coeff-Com: -0.209D-01 0.174D+00 0.847D+00
 Coeff-En:   0.000D+00 0.000D+00 0.100D+01
 Coeff:     -0.176D-01 0.147D+00 0.871D+00
 Gap=     0.470 Goal=   None    Shift=    0.000
 Gap=     0.348 Goal=   None    Shift=    0.000
 RMSDP=6.71D-04 MaxDP=2.46D-02 DE=-6.53D-02 OVMax= 4.48D-02

 Cycle   4  Pass 1  IDiag  1:
 E= -345.204052288806     Delta-E=       -0.008302279137 Rises=F Damp=F
 DIIS: error= 4.37D-03 at cycle   4 NSaved=   4.
 NSaved= 4 IEnMin= 4 EnMin= -345.204052288806     IErMin= 4 ErrMin= 4.37D-03
 ErrMax= 4.37D-03 EMaxC= 1.00D-01 BMatC= 5.61D-03 BMatP= 2.54D-02
 IDIUse=3 WtCom= 9.56D-01 WtEn= 4.37D-02
 Coeff-Com: -0.146D-01 0.150D-01 0.312D+00 0.688D+00
 Coeff-En:   0.000D+00 0.000D+00 0.000D+00 0.100D+01
 Coeff:     -0.140D-01 0.143D-01 0.298D+00 0.702D+00
 Gap=     0.463 Goal=   None    Shift=    0.000
 Gap=     0.361 Goal=   None    Shift=    0.000
 RMSDP=2.75D-04 MaxDP=7.41D-03 DE=-8.30D-03 OVMax= 1.73D-02

 Cycle   5  Pass 1  IDiag  1:
 E= -345.206111853338     Delta-E=       -0.002059564532 Rises=F Damp=F
 DIIS: error= 7.06D-03 at cycle   5 NSaved=   5.
 NSaved= 5 IEnMin= 5 EnMin= -345.206111853338     IErMin= 4 ErrMin= 4.37D-03
 ErrMax= 7.06D-03 EMaxC= 1.00D-01 BMatC= 1.31D-03 BMatP= 5.61D-03
 IDIUse=3 WtCom= 9.29D-01 WtEn= 7.06D-02
 Coeff-Com:  0.665D-02-0.396D-01-0.217D+00-0.233D+00 0.148D+01
 Coeff-En:   0.000D+00 0.000D+00 0.000D+00 0.000D+00 0.100D+01
 Coeff:      0.618D-02-0.368D-01-0.202D+00-0.217D+00 0.145D+01
 Gap=     0.465 Goal=   None    Shift=    0.000
 Gap=     0.378 Goal=   None    Shift=    0.000
 RMSDP=3.39D-04 MaxDP=1.27D-02 DE=-2.06D-03 OVMax= 3.60D-02

 Cycle   6  Pass 1  IDiag  1:
 E= -345.208041563786     Delta-E=       -0.001929710447 Rises=F Damp=F
 DIIS: error= 4.05D-03 at cycle   6 NSaved=   6.
 NSaved= 6 IEnMin= 6 EnMin= -345.208041563786     IErMin= 6 ErrMin= 4.05D-03
 ErrMax= 4.05D-03 EMaxC= 1.00D-01 BMatC= 6.79D-04 BMatP= 1.31D-03
 IDIUse=3 WtCom= 9.59D-01 WtEn= 4.05D-02
 Coeff-Com:  0.286D-02 0.513D-02-0.344D-01-0.285D+00-0.587D-01 0.137D+01
 Coeff-En:   0.000D+00 0.000D+00 0.000D+00 0.000D+00 0.000D+00 0.100D+01
 Coeff:      0.274D-02 0.492D-02-0.330D-01-0.273D+00-0.563D-01 0.136D+01
 Gap=     0.466 Goal=   None    Shift=    0.000
 Gap=     0.383 Goal=   None    Shift=    0.000
 RMSDP=2.59D-04 MaxDP=9.94D-03 DE=-1.93D-03 OVMax= 2.86D-02

 Cycle   7  Pass 1  IDiag  1:
 E= -345.208977004372     Delta-E=       -0.000935440587 Rises=F Damp=F
 DIIS: error= 2.76D-03 at cycle   7 NSaved=   7.
 NSaved= 7 IEnMin= 7 EnMin= -345.208977004372     IErMin= 7 ErrMin= 2.76D-03
 ErrMax= 2.76D-03 EMaxC= 1.00D-01 BMatC= 2.16D-04 BMatP= 6.79D-04
 IDIUse=3 WtCom= 9.72D-01 WtEn= 2.76D-02
 Coeff-Com: -0.538D-02 0.301D-01 0.178D+00 0.206D+00-0.786D+00-0.436D+00
 Coeff-Com:  0.181D+01
 Coeff-En:   0.000D+00 0.000D+00 0.000D+00 0.000D+00 0.000D+00 0.000D+00
 Coeff-En:   0.100D+01
 Coeff:     -0.524D-02 0.292D-01 0.173D+00 0.200D+00-0.764D+00-0.424D+00
 Coeff:      0.179D+01
 Gap=     0.467 Goal=   None    Shift=    0.000
 Gap=     0.386 Goal=   None    Shift=    0.000
 RMSDP=2.22D-04 MaxDP=9.38D-03 DE=-9.35D-04 OVMax= 2.98D-02

 Cycle   8  Pass 1  IDiag  1:
 E= -345.209387527075     Delta-E=       -0.000410522703 Rises=F Damp=F
 DIIS: error= 7.89D-04 at cycle   8 NSaved=   8.
 NSaved= 8 IEnMin= 8 EnMin= -345.209387527075     IErMin= 8 ErrMin= 7.89D-04
 ErrMax= 7.89D-04 EMaxC= 1.00D-01 BMatC= 3.70D-05 BMatP= 2.16D-04
 IDIUse=3 WtCom= 9.92D-01 WtEn= 7.89D-03
 Coeff-Com:  0.813D-03-0.912D-02-0.416D-01 0.175D-02 0.255D+00-0.278D+00
 Coeff-Com: -0.362D+00 0.143D+01
 Coeff-En:   0.000D+00 0.000D+00 0.000D+00 0.000D+00 0.000D+00 0.000D+00
 Coeff-En:   0.000D+00 0.100D+01
 Coeff:      0.807D-03-0.905D-02-0.413D-01 0.174D-02 0.253D+00-0.276D+00
 Coeff:     -0.359D+00 0.143D+01
 Gap=     0.467 Goal=   None    Shift=    0.000
 Gap=     0.388 Goal=   None    Shift=    0.000
 RMSDP=8.57D-05 MaxDP=2.96D-03 DE=-4.11D-04 OVMax= 1.01D-02

 Cycle   9  Pass 1  IDiag  1:
 E= -345.209443143476     Delta-E=       -0.000055616401 Rises=F Damp=F
 DIIS: error= 2.17D-04 at cycle   9 NSaved=   9.
 NSaved= 9 IEnMin= 9 EnMin= -345.209443143476     IErMin= 9 ErrMin= 2.17D-04
 ErrMax= 2.17D-04 EMaxC= 1.00D-01 BMatC= 9.17D-06 BMatP= 3.70D-05
 IDIUse=3 WtCom= 9.98D-01 WtEn= 2.17D-03
 Coeff-Com:  0.615D-03-0.225D-02-0.153D-01-0.333D-01 0.536D-01 0.175D+00
 Coeff-Com: -0.206D+00-0.472D+00 0.150D+01
 Coeff-En:   0.000D+00 0.000D+00 0.000D+00 0.000D+00 0.000D+00 0.000D+00
 Coeff-En:   0.000D+00 0.000D+00 0.100D+01
 Coeff:      0.614D-03-0.224D-02-0.153D-01-0.333D-01 0.535D-01 0.175D+00
 Coeff:     -0.206D+00-0.471D+00 0.150D+01
 Gap=     0.467 Goal=   None    Shift=    0.000
 Gap=     0.388 Goal=   None    Shift=    0.000
 RMSDP=3.40D-05 MaxDP=1.09D-03 DE=-5.56D-05 OVMax= 1.95D-03

 Cycle  10  Pass 1  IDiag  1:
 E= -345.209456456342     Delta-E=       -0.000013312866 Rises=F Damp=F
 DIIS: error= 1.43D-04 at cycle  10 NSaved=  10.
 NSaved=10 IEnMin=10 EnMin= -345.209456456342     IErMin=10 ErrMin= 1.43D-04
 ErrMax= 1.43D-04 EMaxC= 1.00D-01 BMatC= 4.31D-06 BMatP= 9.17D-06
 IDIUse=3 WtCom= 9.99D-01 WtEn= 1.43D-03
 Coeff-Com: -0.391D-03 0.301D-02 0.156D-01 0.783D-02-0.789D-01 0.138D-01
 Coeff-Com:  0.155D+00-0.241D+00-0.438D+00 0.156D+01
 Coeff-En:   0.000D+00 0.000D+00 0.000D+00 0.000D+00 0.000D+00 0.000D+00
 Coeff-En:   0.000D+00 0.000D+00 0.000D+00 0.100D+01
 Coeff:     -0.391D-03 0.301D-02 0.156D-01 0.782D-02-0.787D-01 0.138D-01
 Coeff:      0.154D+00-0.241D+00-0.437D+00 0.156D+01
 Gap=     0.467 Goal=   None    Shift=    0.000
 Gap=     0.388 Goal=   None    Shift=    0.000
 RMSDP=3.03D-05 MaxDP=8.14D-04 DE=-1.33D-05 OVMax= 2.14D-03

 Cycle  11  Pass 1  IDiag  1:
 E= -345.209465347802     Delta-E=       -0.000008891460 Rises=F Damp=F
 DIIS: error= 1.10D-04 at cycle  11 NSaved=  11.
 NSaved=11 IEnMin=11 EnMin= -345.209465347802     IErMin=11 ErrMin= 1.10D-04
 ErrMax= 1.10D-04 EMaxC= 1.00D-01 BMatC= 2.58D-06 BMatP= 4.31D-06
 IDIUse=3 WtCom= 9.99D-01 WtEn= 1.10D-03
 Coeff-Com: -0.285D-03 0.144D-02 0.813D-02 0.143D-01-0.325D-01-0.684D-01
 Coeff-Com:  0.113D+00 0.126D+00-0.605D+00 0.174D+00 0.127D+01
 Coeff-En:   0.000D+00 0.000D+00 0.000D+00 0.000D+00 0.000D+00 0.000D+00
 Coeff-En:   0.000D+00 0.000D+00 0.000D+00 0.000D+00 0.100D+01
 Coeff:     -0.285D-03 0.144D-02 0.812D-02 0.143D-01-0.324D-01-0.684D-01
 Coeff:      0.113D+00 0.126D+00-0.604D+00 0.174D+00 0.127D+01
 Gap=     0.467 Goal=   None    Shift=    0.000
 Gap=     0.388 Goal=   None    Shift=    0.000
 RMSDP=2.59D-05 MaxDP=4.83D-04 DE=-8.89D-06 OVMax= 2.13D-03

 Cycle  12  Pass 1  IDiag  1:
 E= -345.209471997437     Delta-E=       -0.000006649635 Rises=F Damp=F
 DIIS: error= 1.19D-04 at cycle  12 NSaved=  12.
 NSaved=12 IEnMin=12 EnMin= -345.209471997437     IErMin=11 ErrMin= 1.10D-04
 ErrMax= 1.19D-04 EMaxC= 1.00D-01 BMatC= 2.09D-06 BMatP= 2.58D-06
 IDIUse=3 WtCom= 9.99D-01 WtEn= 1.10D-03
 Coeff-Com:  0.124D-04-0.169D-03-0.115D-02 0.134D-02 0.567D-02-0.126D-01
 Coeff-Com: -0.157D-02 0.511D-01-0.259D-01-0.188D+00 0.174D+00 0.997D+00
 Coeff-En:   0.000D+00 0.000D+00 0.000D+00 0.000D+00 0.000D+00 0.000D+00
 Coeff-En:   0.000D+00 0.000D+00 0.000D+00 0.000D+00 0.000D+00 0.100D+01
 Coeff:      0.124D-04-0.168D-03-0.114D-02 0.134D-02 0.567D-02-0.125D-01
 Coeff:     -0.157D-02 0.510D-01-0.259D-01-0.188D+00 0.173D+00 0.997D+00
 Gap=     0.467 Goal=   None    Shift=    0.000
 Gap=     0.388 Goal=   None    Shift=    0.000
 RMSDP=1.44D-05 MaxDP=2.59D-04 DE=-6.65D-06 OVMax= 1.36D-03

 Cycle  13  Pass 1  IDiag  1:
 E= -345.209475803150     Delta-E=       -0.000003805713 Rises=F Damp=F
 DIIS: error= 1.22D-04 at cycle  13 NSaved=  13.
 NSaved=13 IEnMin=13 EnMin= -345.209475803150     IErMin=11 ErrMin= 1.10D-04
 ErrMax= 1.22D-04 EMaxC= 1.00D-01 BMatC= 2.09D-06 BMatP= 2.09D-06
 IDIUse=3 WtCom= 9.99D-01 WtEn= 1.10D-03
 Coeff-Com:  0.119D-04-0.159D-03-0.108D-02 0.124D-02 0.529D-02-0.116D-01
 Coeff-Com: -0.156D-02 0.477D-01-0.241D-01-0.174D+00 0.160D+00 0.925D+00
 Coeff-Com:  0.741D-01
 Coeff-En:   0.000D+00 0.000D+00 0.000D+00 0.000D+00 0.000D+00 0.000D+00
 Coeff-En:   0.000D+00 0.000D+00 0.000D+00 0.000D+00 0.000D+00 0.000D+00
 Coeff-En:   0.100D+01
 Coeff:      0.119D-04-0.159D-03-0.108D-02 0.124D-02 0.528D-02-0.116D-01
 Coeff:     -0.156D-02 0.477D-01-0.241D-01-0.174D+00 0.160D+00 0.923D+00
 Coeff:      0.751D-01
 Gap=     0.467 Goal=   None    Shift=    0.000
 Gap=     0.388 Goal=   None    Shift=    0.000
 RMSDP=8.77D-07 MaxDP=1.59D-05 DE=-3.81D-06 OVMax= 8.44D-05

 Cycle  14  Pass 1  IDiag  1:
 E= -345.209476042098     Delta-E=       -0.000000238948 Rises=F Damp=F
 DIIS: error= 1.22D-04 at cycle  14 NSaved=  14.
 NSaved=14 IEnMin=14 EnMin= -345.209476042098     IErMin=11 ErrMin= 1.10D-04
 ErrMax= 1.22D-04 EMaxC= 1.00D-01 BMatC= 2.09D-06 BMatP= 2.09D-06
 IDIUse=3 WtCom= 9.99D-01 WtEn= 1.10D-03
 Large coefficients: NSaved= 14 BigCof=   77.37 CofMax=   10.00 Det=-2.55D-11
 Inversion failed.  Reducing to 13 matrices.
 Large coefficients: NSaved= 13 BigCof=   63.42 CofMax=   10.00 Det=-3.08D-11
 Inversion failed.  Reducing to 12 matrices.
 Large coefficients: NSaved= 12 BigCof=   59.57 CofMax=   10.00 Det=-3.23D-11
 Inversion failed.  Reducing to 11 matrices.
 Large coefficients: NSaved= 11 BigCof=   58.42 CofMax=   10.00 Det=-3.26D-11
 Inversion failed.  Reducing to 10 matrices.
 Large coefficients: NSaved= 10 BigCof=   58.78 CofMax=   10.00 Det=-3.38D-11
 Inversion failed.  Reducing to  9 matrices.
 Large coefficients: NSaved=  9 BigCof=   58.34 CofMax=   10.00 Det=-3.40D-11
 Inversion failed.  Reducing to  8 matrices.
 Large coefficients: NSaved=  8 BigCof=   52.20 CofMax=   10.00 Det=-3.81D-11
 Inversion failed.  Reducing to  7 matrices.
 Large coefficients: NSaved=  7 BigCof=   52.03 CofMax=   10.00 Det=-3.82D-11
 Inversion failed.  Reducing to  6 matrices.
 Large coefficients: NSaved=  6 BigCof=   52.17 CofMax=   10.00 Det=-3.83D-11
 Inversion failed.  Reducing to  5 matrices.
 Large coefficients: NSaved=  5 BigCof=   44.89 CofMax=   10.00 Det=-4.27D-11
 Inversion failed.  Reducing to  4 matrices.
 Large coefficients: NSaved=  4 BigCof=   45.37 CofMax=   10.00 Det=-4.33D-11
 Inversion failed.  Reducing to  3 matrices.
 Large coefficients: NSaved=  3 BigCof=   35.65 CofMax=   10.00 Det=-5.41D-11
 Inversion failed.  Reducing to  2 matrices.
 Large coefficients: NSaved=  2 BigCof=   35.53 CofMax=   10.00 Det=-5.41D-11
 Coeff-Com:  0.355D+02-0.345D+02
 Coeff-En:   0.000D+00 0.100D+01
 Coeff:      0.355D+02-0.345D+02
 Gap=     0.467 Goal=   None    Shift=    0.000
 Gap=     0.388 Goal=   None    Shift=    0.000
 RMSDP=2.02D-05 MaxDP=3.79D-04 DE=-2.39D-07 OVMax= 1.99D-03

 Cycle  15  Pass 1  IDiag  1:
 E= -345.209470599228     Delta-E=        0.000005442870 Rises=F Damp=F
 DIIS: error= 1.19D-04 at cycle  15 NSaved=   3.
 NSaved= 3 IEnMin= 2 EnMin= -345.209476042098     IErMin= 3 ErrMin= 1.19D-04
 ErrMax= 1.19D-04 EMaxC= 1.00D-01 BMatC= 2.00D-06 BMatP= 2.09D-06
 IDIUse=3 WtCom= 9.99D-01 WtEn= 1.10D-03
 Large coefficients: NSaved=  3 BigCof=   64.01 CofMax=   10.00 Det=-4.48D-11
 Inversion failed.  Reducing to  2 matrices.
 Coeff-Com: -0.722D+00 0.172D+01
 Coeff-En:   0.000D+00 0.100D+01
 Coeff:     -0.721D+00 0.172D+01
 Gap=     0.467 Goal=   None    Shift=    0.000
 Gap=     0.388 Goal=   None    Shift=    0.000
 RMSDP=4.21D-06 MaxDP=9.44D-05 DE= 5.44D-06 OVMax= 4.47D-04

 Cycle  16  Pass 1  IDiag  1:
 E= -345.209469575465     Delta-E=        0.000001023763 Rises=F Damp=F
 DIIS: error= 1.21D-04 at cycle  16 NSaved=   3.
 NSaved= 3 IEnMin= 1 EnMin= -345.209476042098     IErMin= 2 ErrMin= 1.19D-04
 ErrMax= 1.21D-04 EMaxC= 1.00D-01 BMatC= 1.96D-06 BMatP= 2.00D-06
 IDIUse=3 WtCom= 9.99D-01 WtEn= 1.10D-03
 Large coefficients: NSaved=  3 BigCof=   11.32 CofMax=   10.00 Det=-5.86D-09
 Inversion failed.  Reducing to  2 matrices.
 Coeff-Com:  0.353D+00 0.647D+00
 Coeff-En:   0.000D+00 0.100D+01
 Coeff:      0.352D+00 0.648D+00
 Gap=     0.467 Goal=   None    Shift=    0.000
 Gap=     0.388 Goal=   None    Shift=    0.000
 RMSDP=1.23D-05 MaxDP=2.34D-04 DE= 1.02D-06 OVMax= 1.21D-03

 Cycle  17  Pass 1  IDiag  1:
 E= -345.209472825696     Delta-E=       -0.000003250231 Rises=F Damp=F
 DIIS: error= 1.19D-04 at cycle  17 NSaved=   3.
 NSaved= 3 IEnMin= 3 EnMin= -345.209472825696     IErMin= 3 ErrMin= 1.19D-04
 ErrMax= 1.19D-04 EMaxC= 1.00D-01 BMatC= 2.00D-06 BMatP= 1.96D-06
 IDIUse=3 WtCom= 9.99D-01 WtEn= 1.10D-03
 Coeff-Com:  0.169D+01 0.128D+01-0.198D+01
 Coeff-En:   0.000D+00 0.000D+00 0.100D+01
 Coeff:      0.169D+01 0.128D+01-0.198D+01
 Gap=     0.467 Goal=   None    Shift=    0.000
 Gap=     0.388 Goal=   None    Shift=    0.000
 RMSDP=1.93D-05 MaxDP=3.54D-04 DE=-3.25D-06 OVMax= 1.86D-03

 Cycle  18  Pass 1  IDiag  1:
 E= -345.209467754184     Delta-E=        0.000005071512 Rises=F Damp=F
 DIIS: error= 1.14D-04 at cycle  18 NSaved=   4.
 NSaved= 4 IEnMin= 3 EnMin= -345.209472825696     IErMin= 4 ErrMin= 1.14D-04
 ErrMax= 1.14D-04 EMaxC= 1.00D-01 BMatC= 1.92D-06 BMatP= 1.96D-06
 IDIUse=3 WtCom= 9.99D-01 WtEn= 1.10D-03
 Rare condition: small coef for last iteration:  0.000D+00
 Coeff-Com: -0.567D+01-0.126D+01-0.112D+00 0.804D+01
 Coeff-En:   0.000D+00 0.000D+00 0.000D+00 0.100D+01
 Coeff:     -0.567D+01-0.126D+01-0.112D+00 0.804D+01
 Gap=     0.467 Goal=   None    Shift=    0.000
 Gap=     0.388 Goal=   None    Shift=    0.000
 RMSDP=6.32D-05 MaxDP=1.15D-03 DE= 5.07D-06 OVMax= 6.13D-03

 Cycle  19  Pass 1  IDiag  1:
 E= -345.209452334710     Delta-E=        0.000015419473 Rises=F Damp=F
 DIIS: error= 1.00D-04 at cycle  19 NSaved=   5.
 NSaved= 5 IEnMin= 3 EnMin= -345.209472825696     IErMin= 5 ErrMin= 1.00D-04
 ErrMax= 1.00D-04 EMaxC= 1.00D-01 BMatC= 1.59D-06 BMatP= 1.92D-06
 IDIUse=3 WtCom= 9.99D-01 WtEn= 1.00D-03
 Large coefficients: NSaved=  5 BigCof=   14.48 CofMax=   10.00 Det=-2.99D-09
 Inversion failed.  Reducing to  4 matrices.
 Rare condition: small coef for last iteration:  0.000D+00
 Coeff-Com: -0.309D+01 0.236D+00 0.133D+01 0.252D+01
 Coeff-En:   0.000D+00 0.000D+00 0.000D+00 0.100D+01
 Coeff:     -0.309D+01 0.236D+00 0.133D+01 0.252D+01
 Gap=     0.467 Goal=   None    Shift=    0.000
 Gap=     0.388 Goal=   None    Shift=    0.000
 RMSDP=1.18D-04 MaxDP=2.20D-03 DE= 1.54D-05 OVMax= 1.15D-02

 Cycle  20  Pass 1  IDiag  1:
 E= -345.209428978282     Delta-E=        0.000023356428 Rises=F Damp=F
 DIIS: error= 7.44D-05 at cycle  20 NSaved=   5.
 NSaved= 5 IEnMin= 2 EnMin= -345.209472825696     IErMin= 5 ErrMin= 7.44D-05
 ErrMax= 7.44D-05 EMaxC= 1.00D-01 BMatC= 1.06D-06 BMatP= 1.59D-06
 IDIUse=1 WtCom= 1.00D+00 WtEn= 0.00D+00
 Coeff-Com: -0.171D+01 0.457D+01-0.532D+01 0.151D+01 0.195D+01
 Coeff:     -0.171D+01 0.457D+01-0.532D+01 0.151D+01 0.195D+01
 Gap=     0.467 Goal=   None    Shift=    0.000
 Gap=     0.388 Goal=   None    Shift=    0.000
 RMSDP=1.96D-04 MaxDP=3.63D-03 DE= 2.34D-05 OVMax= 1.93D-02

 Cycle  21  Pass 1  IDiag  1:
 E= -345.209406715913     Delta-E=        0.000022262369 Rises=F Damp=F
 DIIS: error= 3.70D-05 at cycle  21 NSaved=   6.
 NSaved= 6 IEnMin= 2 EnMin= -345.209472825696     IErMin= 6 ErrMin= 3.70D-05
 ErrMax= 3.70D-05 EMaxC= 1.00D-01 BMatC= 3.47D-07 BMatP= 1.06D-06
 IDIUse=1 WtCom= 1.00D+00 WtEn= 0.00D+00
 Coeff-Com:  0.305D+01-0.292D+01 0.194D+01-0.203D+01-0.958D+00 0.191D+01
 Coeff:      0.305D+01-0.292D+01 0.194D+01-0.203D+01-0.958D+00 0.191D+01
 Gap=     0.467 Goal=   None    Shift=    0.000
 Gap=     0.388 Goal=   None    Shift=    0.000
 RMSDP=6.50D-05 MaxDP=1.20D-03 DE= 2.23D-05 OVMax= 6.38D-03

 Cycle  22  Pass 1  IDiag  1:
 E= -345.209403972788     Delta-E=        0.000002743126 Rises=F Damp=F
 DIIS: error= 2.14D-05 at cycle  22 NSaved=   7.
 NSaved= 7 IEnMin= 2 EnMin= -345.209472825696     IErMin= 7 ErrMin= 2.14D-05
 ErrMax= 2.14D-05 EMaxC= 1.00D-01 BMatC= 1.23D-07 BMatP= 3.47D-07
 IDIUse=1 WtCom= 1.00D+00 WtEn= 0.00D+00
 Coeff-Com:  0.193D+01-0.286D+01 0.249D+01-0.119D+01-0.107D+01 0.576D+00
 Coeff-Com:  0.113D+01
 Coeff:      0.193D+01-0.286D+01 0.249D+01-0.119D+01-0.107D+01 0.576D+00
 Coeff:      0.113D+01
 Gap=     0.467 Goal=   None    Shift=    0.000
 Gap=     0.388 Goal=   None    Shift=    0.000
 RMSDP=3.98D-05 MaxDP=7.34D-04 DE= 2.74D-06 OVMax= 3.89D-03

 Cycle  23  Pass 1  IDiag  1:
 E= -345.209403275850     Delta-E=        0.000000696937 Rises=F Damp=F
 DIIS: error= 2.09D-05 at cycle  23 NSaved=   8.
 NSaved= 8 IEnMin= 2 EnMin= -345.209472825696     IErMin= 8 ErrMin= 2.09D-05
 ErrMax= 2.09D-05 EMaxC= 1.00D-01 BMatC= 4.48D-08 BMatP= 1.23D-07
 IDIUse=1 WtCom= 1.00D+00 WtEn= 0.00D+00
 Coeff-Com: -0.606D+00 0.686D+00-0.462D+00 0.344D+00 0.166D+00-0.169D+00
 Coeff-Com: -0.294D+00 0.133D+01
 Coeff:     -0.606D+00 0.686D+00-0.462D+00 0.344D+00 0.166D+00-0.169D+00
 Coeff:     -0.294D+00 0.133D+01
 Gap=     0.467 Goal=   None    Shift=    0.000
 Gap=     0.388 Goal=   None    Shift=    0.000
 RMSDP=1.25D-05 MaxDP=2.38D-04 DE= 6.97D-07 OVMax= 1.22D-03

 Cycle  24  Pass 1  IDiag  1:
 E= -345.209403233271     Delta-E=        0.000000042580 Rises=F Damp=F
 DIIS: error= 1.72D-05 at cycle  24 NSaved=   9.
 NSaved= 9 IEnMin= 2 EnMin= -345.209472825696     IErMin= 9 ErrMin= 1.72D-05
 ErrMax= 1.72D-05 EMaxC= 1.00D-01 BMatC= 2.64D-08 BMatP= 4.48D-08
 IDIUse=1 WtCom= 1.00D+00 WtEn= 0.00D+00
 Coeff-Com: -0.476D+00 0.554D+00-0.427D+00 0.325D+00 0.194D+00-0.148D+00
 Coeff-Com: -0.490D+00 0.155D+00 0.131D+01
 Coeff:     -0.476D+00 0.554D+00-0.427D+00 0.325D+00 0.194D+00-0.148D+00
 Coeff:     -0.490D+00 0.155D+00 0.131D+01
 Gap=     0.467 Goal=   None    Shift=    0.000
 Gap=     0.388 Goal=   None    Shift=    0.000
 RMSDP=7.14D-06 MaxDP=1.25D-04 DE= 4.26D-08 OVMax= 6.65D-04

 Cycle  25  Pass 1  IDiag  1:
 E= -345.209403266515     Delta-E=       -0.000000033245 Rises=F Damp=F
 DIIS: error= 1.58D-05 at cycle  25 NSaved=  10.
 NSaved=10 IEnMin= 2 EnMin= -345.209472825696     IErMin=10 ErrMin= 1.58D-05
 ErrMax= 1.58D-05 EMaxC= 1.00D-01 BMatC= 1.47D-08 BMatP= 2.64D-08
 IDIUse=1 WtCom= 1.00D+00 WtEn= 0.00D+00
 Coeff-Com: -0.592D-01 0.941D-01-0.701D-01 0.202D-01 0.238D-01-0.106D-01
 Coeff-Com:  0.151D+00-0.263D+00-0.532D+00 0.165D+01
 Coeff:     -0.592D-01 0.941D-01-0.701D-01 0.202D-01 0.238D-01-0.106D-01
 Coeff:      0.151D+00-0.263D+00-0.532D+00 0.165D+01
 Gap=     0.467 Goal=   None    Shift=    0.000
 Gap=     0.388 Goal=   None    Shift=    0.000
 RMSDP=2.11D-06 MaxDP=8.10D-05 DE=-3.32D-08 OVMax= 2.40D-04

 Cycle  26  Pass 1  IDiag  1:
 E= -345.209403305856     Delta-E=       -0.000000039341 Rises=F Damp=F
 DIIS: error= 1.42D-05 at cycle  26 NSaved=  11.
 NSaved=11 IEnMin= 2 EnMin= -345.209472825696     IErMin=11 ErrMin= 1.42D-05
 ErrMax= 1.42D-05 EMaxC= 1.00D-01 BMatC= 1.08D-08 BMatP= 1.47D-08
 IDIUse=1 WtCom= 1.00D+00 WtEn= 0.00D+00
 Coeff-Com:  0.322D+00-0.417D+00 0.338D+00-0.205D+00-0.151D+00 0.102D+00
 Coeff-Com:  0.153D+00 0.214D+00-0.419D+00-0.147D+01 0.254D+01
 Coeff:      0.322D+00-0.417D+00 0.338D+00-0.205D+00-0.151D+00 0.102D+00
 Coeff:      0.153D+00 0.214D+00-0.419D+00-0.147D+01 0.254D+01
 Gap=     0.467 Goal=   None    Shift=    0.000
 Gap=     0.388 Goal=   None    Shift=    0.000
 RMSDP=2.78D-06 MaxDP=1.23D-04 DE=-3.93D-08 OVMax= 3.79D-04

 Cycle  27  Pass 1  IDiag  1:
 E= -345.209403357235     Delta-E=       -0.000000051379 Rises=F Damp=F
 DIIS: error= 1.14D-05 at cycle  27 NSaved=  12.
 NSaved=12 IEnMin= 2 EnMin= -345.209472825696     IErMin=12 ErrMin= 1.14D-05
 ErrMax= 1.14D-05 EMaxC= 1.00D-01 BMatC= 7.15D-09 BMatP= 1.08D-08
 IDIUse=1 WtCom= 1.00D+00 WtEn= 0.00D+00
 Coeff-Com:  0.781D-01-0.736D-01 0.184D-01-0.246D-01 0.175D-02 0.258D-01
 Coeff-Com: -0.182D+00 0.661D-01 0.711D+00-0.111D+01-0.494D+00 0.198D+01
 Coeff:      0.781D-01-0.736D-01 0.184D-01-0.246D-01 0.175D-02 0.258D-01
 Coeff:     -0.182D+00 0.661D-01 0.711D+00-0.111D+01-0.494D+00 0.198D+01
 Gap=     0.467 Goal=   None    Shift=    0.000
 Gap=     0.388 Goal=   None    Shift=    0.000
 RMSDP=3.22D-06 MaxDP=1.38D-04 DE=-5.14D-08 OVMax= 4.30D-04

 Cycle  28  Pass 1  IDiag  1:
 E= -345.209403399847     Delta-E=       -0.000000042612 Rises=F Damp=F
 DIIS: error= 8.15D-06 at cycle  28 NSaved=  13.
 NSaved=13 IEnMin= 2 EnMin= -345.209472825696     IErMin=13 ErrMin= 8.15D-06
 ErrMax= 8.15D-06 EMaxC= 1.00D-01 BMatC= 4.07D-09 BMatP= 7.15D-09
 IDIUse=1 WtCom= 1.00D+00 WtEn= 0.00D+00
 Coeff-Com: -0.189D+00 0.312D+00-0.276D+00 0.113D+00 0.119D+00-0.992D-01
 Coeff-Com:  0.294D-01-0.320D+00 0.501D-01 0.193D+01-0.200D+01-0.140D+01
 Coeff-Com:  0.273D+01
 Coeff:     -0.189D+00 0.312D+00-0.276D+00 0.113D+00 0.119D+00-0.992D-01
 Coeff:      0.294D-01-0.320D+00 0.501D-01 0.193D+01-0.200D+01-0.140D+01
 Coeff:      0.273D+01
 Gap=     0.467 Goal=   None    Shift=    0.000
 Gap=     0.388 Goal=   None    Shift=    0.000
 RMSDP=4.45D-06 MaxDP=1.91D-04 DE=-4.26D-08 OVMax= 6.03D-04

 Cycle  29  Pass 1  IDiag  1:
 E= -345.209403436432     Delta-E=       -0.000000036584 Rises=F Damp=F
 DIIS: error= 3.49D-06 at cycle  29 NSaved=  14.
 NSaved=14 IEnMin= 2 EnMin= -345.209472825696     IErMin=14 ErrMin= 3.49D-06
 ErrMax= 3.49D-06 EMaxC= 1.00D-01 BMatC= 1.20D-09 BMatP= 4.07D-09
 IDIUse=1 WtCom= 1.00D+00 WtEn= 0.00D+00
 Coeff-Com: -0.770D-01 0.566D-01-0.603D-02 0.189D-01 0.182D-01-0.387D-01
 Coeff-Com:  0.104D+00 0.651D-01-0.386D+00 0.119D+00 0.680D+00-0.659D+00
 Coeff-Com: -0.565D+00 0.167D+01
 Coeff:     -0.770D-01 0.566D-01-0.603D-02 0.189D-01 0.182D-01-0.387D-01
 Coeff:      0.104D+00 0.651D-01-0.386D+00 0.119D+00 0.680D+00-0.659D+00
 Coeff:     -0.565D+00 0.167D+01
 Gap=     0.467 Goal=   None    Shift=    0.000
 Gap=     0.388 Goal=   None    Shift=    0.000
 RMSDP=2.19D-06 MaxDP=9.82D-05 DE=-3.66D-08 OVMax= 3.02D-04

 Cycle  30  Pass 1  IDiag  1:
 E= -345.209403444244     Delta-E=       -0.000000007812 Rises=F Damp=F
 DIIS: error= 1.28D-06 at cycle  30 NSaved=  15.
 NSaved=15 IEnMin= 2 EnMin= -345.209472825696     IErMin=15 ErrMin= 1.28D-06
 ErrMax= 1.28D-06 EMaxC= 1.00D-01 BMatC= 2.38D-10 BMatP= 1.20D-09
 IDIUse=1 WtCom= 1.00D+00 WtEn= 0.00D+00
 Coeff-Com:  0.556D-01-0.987D-01 0.930D-01-0.376D-01-0.359D-01 0.239D-01
 Coeff-Com: -0.834D-02 0.103D+00 0.323D-01-0.674D+00 0.574D+00 0.510D+00
 Coeff-Com: -0.743D+00-0.258D+00 0.146D+01
 Coeff:      0.556D-01-0.987D-01 0.930D-01-0.376D-01-0.359D-01 0.239D-01
 Coeff:     -0.834D-02 0.103D+00 0.323D-01-0.674D+00 0.574D+00 0.510D+00
 Coeff:     -0.743D+00-0.258D+00 0.146D+01
 Gap=     0.467 Goal=   None    Shift=    0.000
 Gap=     0.388 Goal=   None    Shift=    0.000
 RMSDP=8.15D-07 MaxDP=3.69D-05 DE=-7.81D-09 OVMax= 1.10D-04

 Cycle  31  Pass 1  IDiag  1:
 E= -345.209403445181     Delta-E=       -0.000000000938 Rises=F Damp=F
 DIIS: error= 3.59D-07 at cycle  31 NSaved=  16.
 NSaved=16 IEnMin= 2 EnMin= -345.209472825696     IErMin=16 ErrMin= 3.59D-07
 ErrMax= 3.59D-07 EMaxC= 1.00D-01 BMatC= 3.28D-11 BMatP= 2.38D-10
 IDIUse=1 WtCom= 1.00D+00 WtEn= 0.00D+00
 Coeff-Com:  0.173D-01-0.180D-01 0.981D-02-0.725D-02-0.549D-02 0.114D-01
 Coeff-Com: -0.225D-01-0.336D-01 0.103D+00 0.132D-02-0.163D+00 0.743D-01
 Coeff-Com:  0.194D+00-0.346D+00-0.534D-01 0.124D+01
 Coeff:      0.173D-01-0.180D-01 0.981D-02-0.725D-02-0.549D-02 0.114D-01
 Coeff:     -0.225D-01-0.336D-01 0.103D+00 0.132D-02-0.163D+00 0.743D-01
 Coeff:      0.194D+00-0.346D+00-0.534D-01 0.124D+01
 Gap=     0.467 Goal=   None    Shift=    0.000
 Gap=     0.388 Goal=   None    Shift=    0.000
 RMSDP=2.05D-07 MaxDP=8.10D-06 DE=-9.38D-10 OVMax= 2.21D-05

 Cycle  32  Pass 1  IDiag  1:
 E= -345.209403445229     Delta-E=       -0.000000000048 Rises=F Damp=F
 DIIS: error= 8.41D-08 at cycle  32 NSaved=  17.
 NSaved=17 IEnMin= 2 EnMin= -345.209472825696     IErMin=17 ErrMin= 8.41D-08
 ErrMax= 8.41D-08 EMaxC= 1.00D-01 BMatC= 3.19D-12 BMatP= 3.28D-11
 IDIUse=1 WtCom= 1.00D+00 WtEn= 0.00D+00
 Coeff-Com: -0.388D-02 0.489D-02-0.254D-02 0.132D-02 0.791D-03-0.208D-02
 Coeff-Com:  0.884D-02-0.567D-02-0.302D-01 0.637D-01-0.167D-03-0.860D-01
 Coeff-Com:  0.246D-01 0.126D+00-0.114D+00-0.434D+00 0.145D+01
 Coeff:     -0.388D-02 0.489D-02-0.254D-02 0.132D-02 0.791D-03-0.208D-02
 Coeff:      0.884D-02-0.567D-02-0.302D-01 0.637D-01-0.167D-03-0.860D-01
 Coeff:      0.246D-01 0.126D+00-0.114D+00-0.434D+00 0.145D+01
 Gap=     0.467 Goal=   None    Shift=    0.000
 Gap=     0.388 Goal=   None    Shift=    0.000
 RMSDP=4.09D-08 MaxDP=1.35D-06 DE=-4.75D-11 OVMax= 3.19D-06

 Cycle  33  Pass 1  IDiag  1:
 E= -345.209403445231     Delta-E=       -0.000000000003 Rises=F Damp=F
 DIIS: error= 1.79D-08 at cycle  33 NSaved=  18.
 NSaved=18 IEnMin= 2 EnMin= -345.209472825696     IErMin=18 ErrMin= 1.79D-08
 ErrMax= 1.79D-08 EMaxC= 1.00D-01 BMatC= 3.68D-13 BMatP= 3.19D-12
 IDIUse=1 WtCom= 1.00D+00 WtEn= 0.00D+00
 Coeff-Com: -0.864D-03 0.324D-03 0.849D-04 0.416D-03 0.219D-03-0.522D-03
 Coeff-Com: -0.702D-03 0.473D-02 0.992D-03-0.210D-01 0.132D-01 0.227D-01
 Coeff-Com: -0.237D-01-0.152D-01 0.493D-01 0.268D-01-0.494D+00 0.144D+01
 Coeff:     -0.864D-03 0.324D-03 0.849D-04 0.416D-03 0.219D-03-0.522D-03
 Coeff:     -0.702D-03 0.473D-02 0.992D-03-0.210D-01 0.132D-01 0.227D-01
 Coeff:     -0.237D-01-0.152D-01 0.493D-01 0.268D-01-0.494D+00 0.144D+01
 Gap=     0.467 Goal=   None    Shift=    0.000
 Gap=     0.388 Goal=   None    Shift=    0.000
 RMSDP=8.81D-09 MaxDP=2.31D-07 DE=-2.50D-12 OVMax= 3.71D-07

 SCF Done:  E(UHF) =  -345.209403445     A.U. after   33 cycles
             Convg  =    0.8807D-08             -V/T =  2.0021
 <Sx>= 0.0000 <Sy>= 0.0000 <Sz>= 0.5000 <S**2>= 0.7651 S= 0.5075
 <L.S>= 0.000000000000E+00
 KE= 3.444806278784D+02 PE=-1.408006624415D+03 EE= 4.190592014869D+02
 Annihilation of the first spin contaminant:
 S**2 before annihilation     0.7651,   after     0.7502
 Leave Link  502 at Mon Apr 30 11:57:03 2018, MaxMem=  671088640 cpu:     840.9
 (Enter /shared/apps/gaussian/G09_LINUX_LINDA/g09/l601.exe)
 Copying SCF densities to generalized density rwf, IOpCl= 1 IROHF=0.

 **********************************************************************

            Population analysis using the SCF density.

 **********************************************************************

 Orbital symmetries:
 Alpha Orbitals:
       Occupied  (A) (A) (A) (A) (A) (A) (A) (A) (A) (A) (A) (A)
                 (A) (A) (A) (A) (A) (A) (A) (A) (A) (A) (A) (A)
                 (A) (A) (A) (A) (A)
       Virtual   (A) (A) (A) (A) (A) (A) (A) (A) (A) (A) (A) (A)
                 (A) (A) (A) (A) (A) (A) (A) (A) (A) (A) (A) (A)
                 (A) (A) (A) (A) (A) (A) (A) (A) (A) (A) (A) (A)
                 (A) (A) (A) (A) (A) (A) (A) (A) (A) (A) (A) (A)
                 (A) (A) (A) (A) (A) (A) (A) (A) (A) (A) (A) (A)
                 (A) (A) (A) (A) (A) (A) (A) (A) (A) (A) (A) (A)
                 (A) (A) (A) (A) (A) (A) (A) (A) (A) (A) (A) (A)
                 (A) (A) (A) (A) (A) (A) (A) (A) (A) (A) (A) (A)
                 (A) (A)
 Beta  Orbitals:
       Occupied  (A) (A) (A) (A) (A) (A) (A) (A) (A) (A) (A) (A)
                 (A) (A) (A) (A) (A) (A) (A) (A) (A) (A) (A) (A)
                 (A) (A) (A) (A)
       Virtual   (A) (A) (A) (A) (A) (A) (A) (A) (A) (A) (A) (A)
                 (A) (A) (A) (A) (A) (A) (A) (A) (A) (A) (A) (A)
                 (A) (A) (A) (A) (A) (A) (A) (A) (A) (A) (A) (A)
                 (A) (A) (A) (A) (A) (A) (A) (A) (A) (A) (A) (A)
                 (A) (A) (A) (A) (A) (A) (A) (A) (A) (A) (A) (A)
                 (A) (A) (A) (A) (A) (A) (A) (A) (A) (A) (A) (A)
                 (A) (A) (A) (A) (A) (A) (A) (A) (A) (A) (A) (A)
                 (A) (A) (A) (A) (A) (A) (A) (A) (A) (A) (A) (A)
                 (A) (A) (A)
 The electronic state is 2-A.
 Alpha  occ. eigenvalues --  -20.71768 -20.70189 -11.21893 -11.21563 -11.21479
 Alpha  occ. eigenvalues --  -11.20325 -11.19854  -1.60810  -1.24478  -1.07873
 Alpha  occ. eigenvalues --   -0.96309  -0.92857  -0.84792  -0.80566  -0.77976
 Alpha  occ. eigenvalues --   -0.73092  -0.67883  -0.60930  -0.57919  -0.57228
 Alpha  occ. eigenvalues --   -0.55072  -0.54485  -0.53516  -0.52139  -0.50181
 Alpha  occ. eigenvalues --   -0.48180  -0.46119  -0.42474  -0.30011
 Alpha virt. eigenvalues --    0.16682   0.19202   0.24386   0.26748   0.28414
 Alpha virt. eigenvalues --    0.28779   0.29678   0.33504   0.34825   0.35370
 Alpha virt. eigenvalues --    0.36846   0.40237   0.41844   0.45401   0.50614
 Alpha virt. eigenvalues --    0.53598   0.57023   0.70775   0.73271   0.74480
 Alpha virt. eigenvalues --    0.79754   0.79971   0.83585   0.86212   0.89657
 Alpha virt. eigenvalues --    0.90554   0.92198   0.94305   0.98862   1.01474
 Alpha virt. eigenvalues --    1.01811   1.03477   1.04749   1.06341   1.08418
 Alpha virt. eigenvalues --    1.09032   1.13935   1.15264   1.16048   1.16687
 Alpha virt. eigenvalues --    1.18864   1.19301   1.19838   1.22127   1.22947
 Alpha virt. eigenvalues --    1.25141   1.27500   1.29128   1.38797   1.42307
 Alpha virt. eigenvalues --    1.46518   1.56086   1.61019   1.61538   1.65229
 Alpha virt. eigenvalues --    1.69131   1.71821   1.74229   1.80261   1.82231
 Alpha virt. eigenvalues --    1.84012   1.99180   1.99729   2.11278   2.12763
 Alpha virt. eigenvalues --    2.13854   2.18558   2.19963   2.24025   2.25493
 Alpha virt. eigenvalues --    2.37349   2.41493   2.43183   2.50782   2.52355
 Alpha virt. eigenvalues --    2.53893   2.58877   2.62165   2.63926   2.68034
 Alpha virt. eigenvalues --    2.70061   2.74590   2.76013   2.76335   2.84840
 Alpha virt. eigenvalues --    2.89446   2.93016   3.01702   3.25148   3.26358
 Alpha virt. eigenvalues --    3.39345   3.81897   4.14318   4.55715   4.63998
 Alpha virt. eigenvalues --    4.72458   4.76174   5.00038
  Beta  occ. eigenvalues --  -20.69334 -20.67878 -11.21875 -11.21664 -11.21519
  Beta  occ. eigenvalues --  -11.20178 -11.19675  -1.54432  -1.15221  -1.07900
  Beta  occ. eigenvalues --   -0.95850  -0.92846  -0.84031  -0.78754  -0.71597
  Beta  occ. eigenvalues --   -0.67721  -0.60908  -0.58994  -0.57915  -0.57188
  Beta  occ. eigenvalues --   -0.53901  -0.52113  -0.51065  -0.50152  -0.48120
  Beta  occ. eigenvalues --   -0.45989  -0.41983  -0.29998
  Beta virt. eigenvalues --    0.08800   0.16999   0.19420   0.24501   0.27279
  Beta virt. eigenvalues --    0.28438   0.29706   0.30346   0.34118   0.34834
  Beta virt. eigenvalues --    0.35428   0.37403   0.40661   0.41743   0.45628
  Beta virt. eigenvalues --    0.50920   0.54787   0.57147   0.70991   0.73653
  Beta virt. eigenvalues --    0.74399   0.79754   0.81007   0.84044   0.86301
  Beta virt. eigenvalues --    0.90108   0.90983   0.93174   0.94978   0.99089
  Beta virt. eigenvalues --    1.01585   1.03163   1.04542   1.05367   1.06861
  Beta virt. eigenvalues --    1.08882   1.12740   1.14632   1.15319   1.16713
  Beta virt. eigenvalues --    1.17409   1.19322   1.19633   1.21349   1.22378
  Beta virt. eigenvalues --    1.23214   1.25757   1.28326   1.33636   1.39540
  Beta virt. eigenvalues --    1.43000   1.47184   1.56758   1.61716   1.63353
  Beta virt. eigenvalues --    1.66000   1.69785   1.72799   1.75214   1.80845
  Beta virt. eigenvalues --    1.85265   1.86107   2.00831   2.06732   2.11476
  Beta virt. eigenvalues --    2.13192   2.18096   2.19777   2.20021   2.24003
  Beta virt. eigenvalues --    2.25646   2.38011   2.41735   2.43645   2.50935
  Beta virt. eigenvalues --    2.52388   2.54384   2.59357   2.63247   2.64161
  Beta virt. eigenvalues --    2.68144   2.70166   2.75230   2.76556   2.77749
  Beta virt. eigenvalues --    2.86600   2.89503   2.95034   3.01896   3.25209
  Beta virt. eigenvalues --    3.28019   3.39364   3.83513   4.16840   4.55714
  Beta virt. eigenvalues --    4.64146   4.72512   4.76274   5.00053
          Condensed to atoms (all electrons):
              1          2          3          4          5          6
     1  O    8.373439   0.042117   0.005612   0.000905  -0.082885  -0.002124
     2  O    0.042117   8.052559  -0.000416  -0.000117   0.003925   0.000040
     3  C    0.005612  -0.000416   5.035026   0.692402   0.314598  -0.058822
     4  C    0.000905  -0.000117   0.692402   4.953698  -0.056871   0.344599
     5  C   -0.082885   0.003925   0.314598  -0.056871   5.240021  -0.011616
     6  C   -0.002124   0.000040  -0.058822   0.344599  -0.011616   5.114372
     7  C   -0.000008   0.000000  -0.066654   0.336758   0.003166  -0.051393
     8  H   -0.029864   0.249954   0.000197   0.000132  -0.000568   0.000135
     9  H   -0.000074   0.000005   0.399665  -0.047276  -0.037885   0.003498
    10  H   -0.184982   0.020621  -0.041480  -0.005601   0.424652   0.000698
    11  H    0.001751  -0.000087  -0.038794   0.004118   0.385197   0.000151
    12  H    0.001618  -0.000043  -0.042082  -0.007258   0.378504   0.000176
    13  H    0.000081  -0.000003  -0.005674  -0.041161  -0.000411   0.390157
    14  H    0.004446  -0.000096  -0.006303  -0.041054  -0.000423   0.386822
    15  H    0.000024  -0.000001   0.003494  -0.037738   0.000213   0.390726
    16  H    0.000000   0.000000  -0.006659  -0.040306  -0.000038   0.002969
    17  H    0.000000   0.000000   0.004260  -0.040661  -0.000082  -0.005258
    18  H   -0.000001   0.000000  -0.006778  -0.041125  -0.000001   0.003069
              7          8          9         10         11         12
     1  O   -0.000008  -0.029864  -0.000074  -0.184982   0.001751   0.001618
     2  O    0.000000   0.249954   0.000005   0.020621  -0.000087  -0.000043
     3  C   -0.066654   0.000197   0.399665  -0.041480  -0.038794  -0.042082
     4  C    0.336758   0.000132  -0.047276  -0.005601   0.004118  -0.007258
     5  C    0.003166  -0.000568  -0.037885   0.424652   0.385197   0.378504
     6  C   -0.051393   0.000135   0.003498   0.000698   0.000151   0.000176
     7  C    5.110417  -0.000001  -0.003895   0.000015  -0.000109  -0.000043
     8  H   -0.000001   0.303997  -0.000003  -0.002187   0.000005   0.000009
     9  H   -0.003895  -0.000003   0.518459   0.002018  -0.004873   0.002788
    10  H    0.000015  -0.002187   0.002018   0.536291  -0.020734  -0.019227
    11  H   -0.000109   0.000005  -0.004873  -0.020734   0.551344  -0.027118
    12  H   -0.000043   0.000009   0.002788  -0.019227  -0.027118   0.553925
    13  H    0.002983   0.000002  -0.000070  -0.001050  -0.000005   0.003669
    14  H    0.003206  -0.000107  -0.000104   0.000584   0.000037  -0.001067
    15  H   -0.005463  -0.000004  -0.000092   0.000004  -0.000001  -0.000004
    16  H    0.391194   0.000000   0.001097  -0.000011   0.000000   0.000046
    17  H    0.391539   0.000000   0.000087   0.000003   0.000001   0.000003
    18  H    0.390442  -0.000003   0.001201   0.000037   0.000000  -0.000017
             13         14         15         16         17         18
     1  O    0.000081   0.004446   0.000024   0.000000   0.000000  -0.000001
     2  O   -0.000003  -0.000096  -0.000001   0.000000   0.000000   0.000000
     3  C   -0.005674  -0.006303   0.003494  -0.006659   0.004260  -0.006778
     4  C   -0.041161  -0.041054  -0.037738  -0.040306  -0.040661  -0.041125
     5  C   -0.000411  -0.000423   0.000213  -0.000038  -0.000082  -0.000001
     6  C    0.390157   0.386822   0.390726   0.002969  -0.005258   0.003069
     7  C    0.002983   0.003206  -0.005463   0.391194   0.391539   0.390442
     8  H    0.000002  -0.000107  -0.000004   0.000000   0.000000  -0.000003
     9  H   -0.000070  -0.000104  -0.000092   0.001097   0.000087   0.001201
    10  H   -0.001050   0.000584   0.000004  -0.000011   0.000003   0.000037
    11  H   -0.000005   0.000037  -0.000001   0.000000   0.000001   0.000000
    12  H    0.003669  -0.001067  -0.000004   0.000046   0.000003  -0.000017
    13  H    0.526453  -0.025356  -0.025943  -0.000099   0.000145  -0.000106
    14  H   -0.025356   0.549550  -0.027440  -0.000100   0.000145  -0.000128
    15  H   -0.025943  -0.027440   0.542097   0.000165   0.002178   0.000163
    16  H   -0.000099  -0.000100   0.000165   0.529539  -0.025547  -0.025072
    17  H    0.000145   0.000145   0.002178  -0.025547   0.545188  -0.026295
    18  H   -0.000106  -0.000128   0.000163  -0.025072  -0.026295   0.539077
 Mulliken atomic charges:
              1
     1  O   -0.130056
     2  O   -0.368460
     3  C   -0.181593
     4  C    0.026557
     5  C   -0.559497
     6  C   -0.508198
     7  C   -0.502156
     8  H    0.478306
     9  H    0.165456
    10  H    0.290349
    11  H    0.149115
    12  H    0.156124
    13  H    0.176388
    14  H    0.157390
    15  H    0.157622
    16  H    0.172821
    17  H    0.154295
    18  H    0.165536
 Sum of Mulliken atomic charges =   0.00000
 Mulliken charges with hydrogens summed into heavy atoms:
              1
     1  O    0.160293
     2  O    0.109846
     3  C   -0.016137
     4  C    0.026557
     5  C   -0.254258
     6  C   -0.016798
     7  C   -0.009503
 Sum of Mulliken charges with hydrogens summed into heavy atoms =   0.00000
          Atomic-Atomic Spin Densities.
              1          2          3          4          5          6
     1  O    1.028770  -0.108613   0.001663   0.000112  -0.009229   0.000532
     2  O   -0.108613   0.212445  -0.000087  -0.000007   0.000345  -0.000016
     3  C    0.001663  -0.000087   0.092842  -0.000281  -0.007365  -0.000104
     4  C    0.000112  -0.000007  -0.000281  -0.100235   0.000461   0.004087
     5  C   -0.009229   0.000345  -0.007365   0.000461   0.061261  -0.000496
     6  C    0.000532  -0.000016  -0.000104   0.004087  -0.000496   0.008431
     7  C   -0.000002   0.000000  -0.000566   0.003321   0.000024  -0.000101
     8  H    0.001308  -0.002864   0.000005  -0.000008   0.000043  -0.000007
     9  H   -0.000024   0.000001  -0.000135   0.000536  -0.000408  -0.000011
    10  H   -0.034412   0.002104  -0.001611   0.000734   0.012913  -0.000435
    11  H    0.000240  -0.000003  -0.000601  -0.000122   0.000714   0.000010
    12  H    0.000496  -0.000011  -0.001377  -0.000321  -0.002888   0.000053
    13  H   -0.000005   0.000000   0.000020   0.001385  -0.000120  -0.000779
    14  H   -0.001527   0.000082  -0.000242   0.001251   0.000487  -0.000370
    15  H   -0.000003   0.000000   0.000004   0.000264   0.000002  -0.000215
    16  H    0.000000   0.000000   0.000048   0.001401   0.000005  -0.000023
    17  H    0.000000   0.000000  -0.000001   0.000276  -0.000001  -0.000050
    18  H   -0.000001   0.000000  -0.000113   0.001602  -0.000009  -0.000021
              7          8          9         10         11         12
     1  O   -0.000002   0.001308  -0.000024  -0.034412   0.000240   0.000496
     2  O    0.000000  -0.002864   0.000001   0.002104  -0.000003  -0.000011
     3  C   -0.000566   0.000005  -0.000135  -0.001611  -0.000601  -0.001377
     4  C    0.003321  -0.000008   0.000536   0.000734  -0.000122  -0.000321
     5  C    0.000024   0.000043  -0.000408   0.012913   0.000714  -0.002888
     6  C   -0.000101  -0.000007  -0.000011  -0.000435   0.000010   0.000053
     7  C    0.010775   0.000000  -0.000006   0.000008   0.000001   0.000003
     8  H    0.000000  -0.010495   0.000000   0.000011  -0.000001   0.000001
     9  H   -0.000006   0.000000  -0.006121  -0.000052   0.000162  -0.000070
    10  H    0.000008   0.000011  -0.000052  -0.002455   0.000860  -0.003035
    11  H    0.000001  -0.000001   0.000162   0.000860  -0.006784   0.000368
    12  H    0.000003   0.000001  -0.000070  -0.003035   0.000368   0.010599
    13  H   -0.000016   0.000000   0.000001  -0.000021  -0.000002   0.000161
    14  H   -0.000015   0.000043   0.000007   0.000737  -0.000010  -0.000075
    15  H   -0.000059   0.000000   0.000001   0.000004   0.000000  -0.000004
    16  H   -0.000943   0.000000   0.000021   0.000000   0.000000   0.000001
    17  H   -0.000367   0.000000  -0.000004   0.000000   0.000000   0.000000
    18  H   -0.000971   0.000000   0.000006   0.000000   0.000000  -0.000001
             13         14         15         16         17         18
     1  O   -0.000005  -0.001527  -0.000003   0.000000   0.000000  -0.000001
     2  O    0.000000   0.000082   0.000000   0.000000   0.000000   0.000000
     3  C    0.000020  -0.000242   0.000004   0.000048  -0.000001  -0.000113
     4  C    0.001385   0.001251   0.000264   0.001401   0.000276   0.001602
     5  C   -0.000120   0.000487   0.000002   0.000005  -0.000001  -0.000009
     6  C   -0.000779  -0.000370  -0.000215  -0.000023  -0.000050  -0.000021
     7  C   -0.000016  -0.000015  -0.000059  -0.000943  -0.000367  -0.000971
     8  H    0.000000   0.000043   0.000000   0.000000   0.000000   0.000000
     9  H    0.000001   0.000007   0.000001   0.000021  -0.000004   0.000006
    10  H   -0.000021   0.000737   0.000004   0.000000   0.000000   0.000000
    11  H   -0.000002  -0.000010   0.000000   0.000000   0.000000   0.000000
    12  H    0.000161  -0.000075  -0.000004   0.000001   0.000000  -0.000001
    13  H   -0.003915   0.000556   0.000022  -0.000017   0.000001   0.000007
    14  H    0.000556  -0.004011   0.000047   0.000005   0.000003  -0.000012
    15  H    0.000022   0.000047  -0.000592  -0.000002   0.000000   0.000004
    16  H   -0.000017   0.000005  -0.000002  -0.004216   0.000087   0.000771
    17  H    0.000001   0.000003   0.000000   0.000087  -0.000652   0.000099
    18  H    0.000007  -0.000012   0.000004   0.000771   0.000099  -0.004168
 Mulliken atomic spin densities:
              1
     1  O    0.879305
     2  O    0.103376
     3  C    0.082099
     4  C   -0.085544
     5  C    0.055740
     6  C    0.010483
     7  C    0.011087
     8  H   -0.011965
     9  H   -0.006098
    10  H   -0.024651
    11  H   -0.005167
    12  H    0.003900
    13  H   -0.002721
    14  H   -0.003043
    15  H   -0.000526
    16  H   -0.002861
    17  H   -0.000607
    18  H   -0.002807
 Sum of Mulliken atomic spin densities =   1.00000
 Electronic spatial extent (au):  <R**2>=           1201.8614
 Charge=              0.0000 electrons
 Dipole moment (field-independent basis, Debye):
    X=             -0.3208    Y=             -2.5549    Z=             -0.3513  Tot=              2.5988
 Quadrupole moment (field-independent basis, Debye-Ang):
   XX=            -47.6155   YY=            -41.3037   ZZ=            -44.6772
   XY=              4.1894   XZ=              0.1672   YZ=              0.3232
 Traceless Quadrupole moment (field-independent basis, Debye-Ang):
   XX=             -3.0834   YY=              3.2284   ZZ=             -0.1451
   XY=              4.1894   XZ=              0.1672   YZ=              0.3232
 Octapole moment (field-independent basis, Debye-Ang**2):
  XXX=            -13.3547  YYY=            -18.0728  ZZZ=             -2.7682  XYY=            -19.2775
  XXY=            -12.6391  XXZ=              0.9224  XZZ=             -8.1772  YZZ=             -1.2212
  YYZ=             -5.4495  XYZ=             -3.6582
 Hexadecapole moment (field-independent basis, Debye-Ang**3):
 XXXX=          -1072.0036 YYYY=           -308.8188 ZZZZ=           -207.6926 XXXY=             32.5847
 XXXZ=             -0.9037 YYYX=             36.7831 YYYZ=              2.8224 ZZZX=              6.6073
 ZZZY=              5.6624 XXYY=           -194.6782 XXZZ=           -204.3394 YYZZ=            -85.2696
 XXYZ=              1.3475 YYXZ=             11.4246 ZZXY=              9.4666
 N-N= 2.992573916041D+02 E-N=-2.102166939248D+03  KE= 5.150221359498D+02
                          Isotropic Fermi Contact Couplings
        Atom                 a.u.       MegaHertz       Gauss      10(-4) cm-1
     1  O(17)              0.20358    -123.41119     -44.03618     -41.16554
     2  O(17)              0.07822     -47.41759     -16.91977     -15.81680
     3  C(13)              0.01238      13.92214       4.96776       4.64393
     4  C(13)             -0.01550     -17.42518      -6.21774      -5.81241
     5  C(13)              0.02389      26.85999       9.58431       8.95953
     6  C(13)              0.00340       3.81989       1.36303       1.27418
     7  C(13)              0.00367       4.12453       1.47173       1.37579
     8  H(1)              -0.00618     -27.64159      -9.86320      -9.22024
     9  H(1)              -0.00171      -7.64663      -2.72851      -2.55064
    10  H(1)              -0.01241     -55.47523     -19.79494     -18.50454
    11  H(1)              -0.00163      -7.30107      -2.60520      -2.43538
    12  H(1)               0.00246      11.00231       3.92590       3.66997
    13  H(1)              -0.00128      -5.73206      -2.04534      -1.91201
    14  H(1)              -0.00140      -6.27289      -2.23832      -2.09241
    15  H(1)              -0.00017      -0.75369      -0.26894      -0.25140
    16  H(1)              -0.00133      -5.93220      -2.11676      -1.97877
    17  H(1)              -0.00020      -0.88257      -0.31492      -0.29439
    18  H(1)              -0.00131      -5.86306      -2.09208      -1.95571
 --------------------------------------------------------
       Center         ----  Spin Dipole Couplings  ----
                      3XX-RR        3YY-RR        3ZZ-RR
 --------------------------------------------------------
     1   Atom       -0.534667     -1.303546      1.838213
     2   Atom       -0.092435     -0.240949      0.333384
     3   Atom        0.012840     -0.005757     -0.007082
     4   Atom       -0.001932     -0.000812      0.002744
     5   Atom        0.029770      0.013465     -0.043235
     6   Atom        0.003417     -0.002124     -0.001292
     7   Atom        0.002553     -0.001189     -0.001364
     8   Atom       -0.020207      0.044429     -0.024222
     9   Atom        0.001259     -0.003672      0.002413
    10   Atom        0.023565      0.012045     -0.035610
    11   Atom       -0.002373      0.008471     -0.006098
    12   Atom       -0.000741     -0.002409      0.003151
    13   Atom        0.002595     -0.001642     -0.000953
    14   Atom        0.006012     -0.002326     -0.003685
    15   Atom        0.002306     -0.000815     -0.001491
    16   Atom        0.001357     -0.000281     -0.001076
    17   Atom        0.001057     -0.000464     -0.000592
    18   Atom        0.001737     -0.000640     -0.001097
 --------------------------------------------------------
                        XY            XZ            YZ
 --------------------------------------------------------
     1   Atom        0.719453     -2.017219     -1.234710
     2   Atom        0.180654     -0.658732     -0.422245
     3   Atom        0.040514      0.032232      0.029929
     4   Atom       -0.038488     -0.033294     -0.030992
     5   Atom        0.063825      0.005101      0.003057
     6   Atom       -0.002216      0.002065     -0.001622
     7   Atom       -0.001002     -0.000966      0.000430
     8   Atom       -0.014890     -0.004338      0.012801
     9   Atom        0.005234     -0.003878     -0.002217
    10   Atom        0.090511      0.038651      0.039929
    11   Atom        0.004762      0.000527     -0.004692
    12   Atom        0.006700      0.003554      0.004095
    13   Atom       -0.000419      0.003608     -0.000413
    14   Atom       -0.006666      0.006458     -0.003160
    15   Atom       -0.001826      0.001201     -0.000085
    16   Atom       -0.000153      0.000136      0.000083
    17   Atom       -0.000386      0.000080     -0.000368
    18   Atom       -0.000732     -0.000642      0.000272
 --------------------------------------------------------


 ---------------------------------------------------------------------------------
              Anisotropic Spin Dipole Couplings in Principal Axis System
 ---------------------------------------------------------------------------------

       Atom             a.u.   MegaHertz   Gauss  10(-4) cm-1        Axes

              Baa    -1.7379   125.755    44.872    41.947 -0.3284  0.9345  0.1374
     1 O(17)  Bbb    -1.6860   122.001    43.533    40.695  0.8159  0.2074  0.5397
              Bcc     3.4240  -247.756   -88.406   -82.643 -0.4758 -0.2893  0.8306
 
              Baa    -0.6164    44.601    15.915    14.877  0.6626  0.3961  0.6357
     2 O(17)  Bbb    -0.3617    26.174     9.339     8.731 -0.5258  0.8504  0.0183
              Bcc     0.9781   -70.775   -25.254   -23.608 -0.5333 -0.3463  0.7718
 
              Baa    -0.0392    -5.262    -1.878    -1.755 -0.4432  0.8330 -0.3313
     3 C(13)  Bbb    -0.0309    -4.141    -1.478    -1.381 -0.5953  0.0029  0.8035
              Bcc     0.0701     9.403     3.355     3.137  0.6702  0.5533  0.4946
 
              Baa    -0.0688    -9.229    -3.293    -3.078  0.6056  0.5876  0.5366
     4 C(13)  Bbb     0.0314     4.219     1.505     1.407 -0.2432 -0.5053  0.8279
              Bcc     0.0373     5.010     1.788     1.671  0.7577 -0.6319 -0.1631
 
              Baa    -0.0443    -5.939    -2.119    -1.981 -0.4076  0.4074  0.8173
     5 C(13)  Bbb    -0.0420    -5.632    -2.010    -1.879 -0.5209  0.6314 -0.5745
              Bcc     0.0862    11.571     4.129     3.860  0.7501  0.6598  0.0451
 
              Baa    -0.0034    -0.461    -0.165    -0.154  0.1134  0.8420  0.5273
     6 C(13)  Bbb    -0.0017    -0.232    -0.083    -0.077 -0.4874 -0.4154  0.7680
              Bcc     0.0052     0.693     0.247     0.231  0.8658 -0.3441  0.3633
 
              Baa    -0.0017    -0.231    -0.082    -0.077  0.0538 -0.5643  0.8238
     7 C(13)  Bbb    -0.0013    -0.178    -0.064    -0.059  0.3323  0.7881  0.5182
              Bcc     0.0031     0.409     0.146     0.137  0.9416 -0.2459 -0.2299
 
              Baa    -0.0272   -14.527    -5.183    -4.846  0.3916 -0.0823  0.9164
     8 H(1)   Bbb    -0.0229   -12.216    -4.359    -4.075  0.8948  0.2661 -0.3585
              Bcc     0.0501    26.743     9.543     8.921 -0.2143  0.9604  0.1779
 
              Baa    -0.0070    -3.734    -1.332    -1.245 -0.5441  0.8386 -0.0267
     9 H(1)   Bbb    -0.0011    -0.582    -0.208    -0.194  0.5074  0.3542  0.7855
              Bcc     0.0081     4.316     1.540     1.440  0.6682  0.4139 -0.6182
 
              Baa    -0.0732   -39.074   -13.943   -13.034 -0.6496  0.7494 -0.1280
    10 H(1)   Bbb    -0.0542   -28.903   -10.313    -9.641 -0.3249 -0.1215  0.9379
              Bcc     0.1274    67.977    24.256    22.675  0.6873  0.6509  0.3224
 
              Baa    -0.0082    -4.375    -1.561    -1.459 -0.3618  0.3469  0.8653
    11 H(1)   Bbb    -0.0031    -1.654    -0.590    -0.552  0.8788 -0.1829  0.4408
              Bcc     0.0113     6.029     2.151     2.011  0.3112  0.9199 -0.2387
 
              Baa    -0.0084    -4.472    -1.596    -1.492 -0.6372  0.7669 -0.0759
    12 H(1)   Bbb    -0.0013    -0.674    -0.240    -0.225 -0.5302 -0.3648  0.7654
              Bcc     0.0096     5.146     1.836     1.716  0.5593  0.5280  0.6391
 
              Baa    -0.0032    -1.713    -0.611    -0.571 -0.5216  0.0840  0.8491
    13 H(1)   Bbb    -0.0017    -0.897    -0.320    -0.299  0.1186  0.9926 -0.0254
              Bcc     0.0049     2.610     0.931     0.871  0.8449 -0.0875  0.5277
 
              Baa    -0.0069    -3.698    -1.320    -1.234 -0.4927 -0.1218  0.8617
    14 H(1)   Bbb    -0.0059    -3.147    -1.123    -1.050  0.3285  0.8909  0.3137
              Bcc     0.0128     6.845     2.442     2.283  0.8058 -0.4376  0.3989
 
              Baa    -0.0021    -1.132    -0.404    -0.378 -0.4207 -0.5410  0.7283
    15 H(1)   Bbb    -0.0013    -0.687    -0.245    -0.229  0.1623  0.7449  0.6471
              Bcc     0.0034     1.819     0.649     0.607  0.8926 -0.3904  0.2256
 
              Baa    -0.0011    -0.584    -0.208    -0.195 -0.0622 -0.1125  0.9917
    16 H(1)   Bbb    -0.0003    -0.152    -0.054    -0.051  0.0828  0.9896  0.1174
              Bcc     0.0014     0.735     0.262     0.245  0.9946 -0.0894  0.0522
 
              Baa    -0.0009    -0.491    -0.175    -0.164  0.1025  0.6752  0.7305
    17 H(1)   Bbb    -0.0002    -0.130    -0.046    -0.043  0.2477  0.6939 -0.6762
              Bcc     0.0012     0.622     0.222     0.207  0.9634 -0.2502  0.0961
 
              Baa    -0.0013    -0.675    -0.241    -0.225  0.1441 -0.2491  0.9577
    18 H(1)   Bbb    -0.0008    -0.443    -0.158    -0.148  0.3137  0.9294  0.1945
              Bcc     0.0021     1.117     0.399     0.373  0.9385 -0.2724 -0.2120
 

 ---------------------------------------------------------------------------------

 No NMR shielding tensors so no spin-rotation constants.
 Leave Link  601 at Mon Apr 30 11:57:05 2018, MaxMem=  671088640 cpu:      14.7
 (Enter /shared/apps/gaussian/G09_LINUX_LINDA/g09/l701.exe)
 Compute integral first derivatives.
 ... and contract with generalized density number  0.
 Leave Link  701 at Mon Apr 30 11:57:06 2018, MaxMem=  671088640 cpu:      10.6
 (Enter /shared/apps/gaussian/G09_LINUX_LINDA/g09/l702.exe)
 L702 exits ... SP integral derivatives will be done elsewhere.
[...]
    12  H    0.000028   0.000025   0.002712  -0.020304  -0.022792   0.499154
    13  H   -0.001573   0.000001  -0.000109  -0.000036   0.000008   0.000067
    14  H    0.003635   0.000000   0.000038  -0.000043   0.000053   0.000531
    15  H   -0.002201  -0.000023  -0.000101   0.000096  -0.000007  -0.000088
    16  H    0.389970   0.000001   0.000116  -0.000004   0.000005   0.000007
    17  H    0.388273  -0.000029   0.000140   0.000018  -0.000001  -0.000004
    18  H    0.395141   0.000002   0.003032  -0.000002  -0.000008   0.000005
             13         14         15         16         17         18
     1  O    0.000000   0.000021  -0.000004   0.000000   0.000000   0.000000
     2  O    0.000000  -0.000003   0.000004   0.000000   0.000002  -0.000004
     3  C    0.000003  -0.002950   0.000739  -0.000554   0.000414  -0.000784
     4  C   -0.041440  -0.035446  -0.041644  -0.042298  -0.042353  -0.040795
     5  C    0.000197  -0.000719   0.000185  -0.000096  -0.000084   0.000142
     6  C    0.389909   0.395125   0.391110  -0.000796  -0.001498   0.003665
     7  C   -0.001573   0.003635  -0.002201   0.389970   0.388273   0.395141
     8  H    0.000001   0.000000  -0.000023   0.000001  -0.000029   0.000002
     9  H   -0.000109   0.000038  -0.000101   0.000116   0.000140   0.003032
    10  H   -0.000036  -0.000043   0.000096  -0.000004   0.000018  -0.000002
    11  H    0.000008   0.000053  -0.000007   0.000005  -0.000001  -0.000008
    12  H    0.000067   0.000531  -0.000088   0.000007  -0.000004   0.000005
    13  H    0.534591  -0.024824  -0.033135   0.002588  -0.000377  -0.000057
    14  H   -0.024824   0.512127  -0.025948  -0.000040  -0.000065  -0.000092
    15  H   -0.033135  -0.025948   0.538117  -0.000402   0.002694  -0.000036
    16  H    0.002588  -0.000040  -0.000402   0.539181  -0.034756  -0.024256
    17  H   -0.000377  -0.000065   0.002694  -0.034756   0.546816  -0.025007
    18  H   -0.000057  -0.000092  -0.000036  -0.024256  -0.025007   0.512730
 Mulliken atomic charges:
              1
     1  O   -0.301730
     2  O   -0.434430
     3  C   -0.186520
     4  C    0.057995
     5  C   -0.515944
     6  C   -0.514769
     7  C   -0.509842
     8  H    0.457069
     9  H    0.190750
    10  H    0.321753
    11  H    0.204781
    12  H    0.193983
    13  H    0.174184
    14  H    0.178601
    15  H    0.170644
    16  H    0.171334
    17  H    0.165816
    18  H    0.176324
 Sum of Mulliken atomic charges =   0.00000
 Mulliken charges with hydrogens summed into heavy atoms:
              1
     1  O    0.020023
     2  O    0.022639
     3  C    0.004231
     4  C    0.057995
     5  C   -0.117180
     6  C    0.008660
     7  C    0.003632
 Sum of Mulliken charges with hydrogens summed into heavy atoms =   0.00000
          Atomic-Atomic Spin Densities.
              1          2          3          4          5          6
     1  O    0.797688  -0.055362   0.007252   0.000685  -0.070279  -0.000020
     2  O   -0.055362   0.033261  -0.002889  -0.000502   0.009138   0.000008
     3  C    0.007252  -0.002889  -0.718093   0.028505  -0.035360   0.000162
     4  C    0.000685  -0.000502   0.028505   0.829211  -0.012632  -0.027429
     5  C   -0.070279   0.009138  -0.035360  -0.012632   0.763680   0.000327
     6  C   -0.000020   0.000008   0.000162  -0.027429   0.000327  -0.085744
     7  C    0.000002  -0.000003  -0.000181  -0.024197   0.000031   0.002200
     8  H   -0.000071  -0.000508  -0.001096   0.000412  -0.000277  -0.000014
     9  H   -0.000102   0.000085   0.007437  -0.002050  -0.001632   0.000042
    10  H   -0.073157   0.018100   0.019401  -0.000029   0.065414  -0.000074
    11  H    0.003137  -0.000567   0.004614  -0.000185  -0.022735  -0.000017
    12  H    0.001800  -0.000157   0.003611  -0.000676  -0.020203   0.000340
    13  H    0.000001   0.000000  -0.000015  -0.012428   0.000108   0.007123
    14  H    0.000001   0.000001   0.000818  -0.002130  -0.000424   0.003448
    15  H   -0.000009   0.000003   0.000059  -0.011591   0.000126   0.007566
    16  H    0.000000   0.000000  -0.000131  -0.012681   0.000023   0.000443
    17  H   -0.000001   0.000005   0.000211  -0.013045   0.000019   0.000609
    18  H    0.000000   0.000000   0.000945  -0.002192  -0.000003  -0.000061
              7          8          9         10         11         12
     1  O    0.000002  -0.000071  -0.000102  -0.073157   0.003137   0.001800
     2  O   -0.000003  -0.000508   0.000085   0.018100  -0.000567  -0.000157
     3  C   -0.000181  -0.001096   0.007437   0.019401   0.004614   0.003611
     4  C   -0.024197   0.000412  -0.002050  -0.000029  -0.000185  -0.000676
     5  C    0.000031  -0.000277  -0.001632   0.065414  -0.022735  -0.020203
     6  C    0.002200  -0.000014   0.000042  -0.000074  -0.000017   0.000340
     7  C   -0.091293  -0.000012   0.000198   0.000017   0.000008   0.000008
     8  H   -0.000012  -0.002436  -0.000024   0.001228  -0.000009  -0.000009
     9  H    0.000198  -0.000024   0.040918  -0.000035  -0.000187  -0.000047
    10  H    0.000017   0.001228  -0.000035  -0.267534   0.009565   0.008205
    11  H    0.000008  -0.000009  -0.000187   0.009565  -0.039328   0.002735
    12  H    0.000008  -0.000009  -0.000047   0.008205   0.002735  -0.034782
    13  H    0.000576   0.000000  -0.000010   0.000004   0.000004   0.000045
    14  H   -0.000080   0.000000   0.000004   0.000033   0.000007   0.000029
    15  H    0.000395  -0.000010   0.000003  -0.000011  -0.000002  -0.000039
    16  H    0.007725   0.000000  -0.000034   0.000001   0.000001   0.000002
    17  H    0.006790  -0.000011   0.000045  -0.000004  -0.000001  -0.000002
    18  H    0.003487   0.000000  -0.000067   0.000000   0.000001   0.000000
             13         14         15         16         17         18
     1  O    0.000001   0.000001  -0.000009   0.000000  -0.000001   0.000000
     2  O    0.000000   0.000001   0.000003   0.000000   0.000005   0.000000
     3  C   -0.000015   0.000818   0.000059  -0.000131   0.000211   0.000945
     4  C   -0.012428  -0.002130  -0.011591  -0.012681  -0.013045  -0.002192
     5  C    0.000108  -0.000424   0.000126   0.000023   0.000019  -0.000003
     6  C    0.007123   0.003448   0.007566   0.000443   0.000609  -0.000061
     7  C    0.000576  -0.000080   0.000395   0.007725   0.006790   0.003487
     8  H    0.000000   0.000000  -0.000010   0.000000  -0.000011   0.000000
     9  H   -0.000010   0.000004   0.000003  -0.000034   0.000045  -0.000067
    10  H    0.000004   0.000033  -0.000011   0.000001  -0.000004   0.000000
    11  H    0.000004   0.000007  -0.000002   0.000001  -0.000001   0.000001
    12  H    0.000045   0.000029  -0.000039   0.000002  -0.000002   0.000000
    13  H    0.036136  -0.000842  -0.006990   0.001596  -0.000620  -0.000002
    14  H   -0.000842   0.003529  -0.000520  -0.000003   0.000002   0.000000
    15  H   -0.006990  -0.000520   0.032045  -0.000638   0.001621  -0.000003
    16  H    0.001596  -0.000003  -0.000638   0.036843  -0.008048  -0.000644
    17  H   -0.000620   0.000002   0.001621  -0.008048   0.039034  -0.000748
    18  H   -0.000002   0.000000  -0.000003  -0.000644  -0.000748   0.003292
 Mulliken atomic spin densities:
              1
     1  O    0.611566
     2  O    0.000611
     3  C   -0.684749
     4  C    0.737046
     5  C    0.675322
     6  C   -0.091089
     7  C   -0.094328
     8  H   -0.002834
     9  H    0.044543
    10  H   -0.218875
    11  H   -0.042958
    12  H   -0.039139
    13  H    0.024685
    14  H    0.003874
    15  H    0.022007
    16  H    0.024455
    17  H    0.025857
    18  H    0.004005
 Sum of Mulliken atomic spin densities =   1.00000
 Electronic spatial extent (au):  <R**2>=           1136.3562
 Charge=              0.0000 electrons
 Dipole moment (field-independent basis, Debye):
    X=              2.9811    Y=              0.0469    Z=             -0.5095  Tot=              3.0247
 Quadrupole moment (field-independent basis, Debye-Ang):
   XX=            -53.0266   YY=            -42.1678   ZZ=            -42.6744
   XY=              1.1652   XZ=             -1.0441   YZ=             -1.9156
 Traceless Quadrupole moment (field-independent basis, Debye-Ang):
   XX=             -7.0703   YY=              3.7884   ZZ=              3.2818
   XY=              1.1652   XZ=             -1.0441   YZ=             -1.9156
 Octapole moment (field-independent basis, Debye-Ang**2):
  XXX=             13.7118  YYY=              4.2076  ZZZ=             -4.8722  XYY=             -7.2166
  XXY=             -2.1833  XXZ=             -0.4595  XZZ=            -10.6385  YZZ=              5.8718
  YYZ=             -3.9082  XYZ=              5.1444
 Hexadecapole moment (field-independent basis, Debye-Ang**3):
 XXXX=          -1025.5819 YYYY=           -285.4667 ZZZZ=           -189.7875 XXXY=             -2.1773
 XXXZ=              2.0909 YYYX=             -8.6252 YYYZ=             -4.3048 ZZZX=              4.3385
 ZZZY=             -5.5194 XXYY=           -213.9360 XXZZ=           -189.6781 YYZZ=            -77.2396
 XXYZ=             -7.7906 YYXZ=              7.3492 ZZXY=             -3.8918
 N-N= 3.040207180052D+02 E-N=-2.117481154484D+03  KE= 5.157477906421D+02
                          Isotropic Fermi Contact Couplings
        Atom                 a.u.       MegaHertz       Gauss      10(-4) cm-1
     1  O(17)              0.11504     -69.73658     -24.88375     -23.26162
     2  O(17)              0.02395     -14.51678      -5.17995      -4.84228
     3  C(13)             -0.12292    -138.18799     -49.30891     -46.09455
     4  C(13)              0.13123     147.53163      52.64295      49.21125
     5  C(13)              0.17048     191.64760      68.38463      63.92676
     6  C(13)             -0.03008     -33.81180     -12.06489     -11.27840
     7  C(13)             -0.03137     -35.26880     -12.58479     -11.76441
     8  H(1)              -0.00134      -5.98150      -2.13435      -1.99521
     9  H(1)               0.01380      61.68352      22.01021      20.57541
    10  H(1)              -0.08692    -388.51814    -138.63293    -129.59570
    11  H(1)              -0.01486     -66.43891     -23.70706     -22.16164
    12  H(1)              -0.01278     -57.12567     -20.38386     -19.05507
    13  H(1)               0.01102      49.23824      17.56943      16.42411
    14  H(1)               0.00132       5.92061       2.11262       1.97490
    15  H(1)               0.00988      44.17157      15.76151      14.73405
    16  H(1)               0.01092      48.79007      17.40951      16.27462
    17  H(1)               0.01143      51.11124      18.23776      17.04888
    18  H(1)               0.00136       6.08503       2.17129       2.02975
 --------------------------------------------------------
       Center         ----  Spin Dipole Couplings  ----
                      3XX-RR        3YY-RR        3ZZ-RR
 --------------------------------------------------------
     1   Atom        0.942056     -0.862640     -0.079415
     2   Atom        0.173743     -0.172077     -0.001666
     3   Atom        0.044871      0.062392     -0.107264
     4   Atom       -0.040904     -0.078526      0.119430
     5   Atom        0.149692     -0.216007      0.066315
     6   Atom        0.003389      0.000447     -0.003836
     7   Atom       -0.003253      0.000105      0.003148
     8   Atom       -0.000467      0.009201     -0.008734
     9   Atom        0.024385     -0.016083     -0.008302
    10   Atom        0.075442     -0.067302     -0.008140
    11   Atom       -0.001671     -0.035551      0.037223
    12   Atom       -0.015432      0.026110     -0.010677
    13   Atom       -0.001025      0.001873     -0.000848
    14   Atom       -0.001071      0.001600     -0.000529
    15   Atom       -0.000596     -0.002627      0.003223
    16   Atom        0.002901      0.000195     -0.003095
    17   Atom        0.001371      0.004388     -0.005759
    18   Atom       -0.002608      0.004363     -0.001755
 --------------------------------------------------------
                        XY            XZ            YZ
 --------------------------------------------------------
     1   Atom       -0.846771      1.624378     -0.589986
     2   Atom       -0.209462      0.147307     -0.196674
     3   Atom        0.193828     -0.272618      0.227286
     4   Atom       -0.228568      0.337317     -0.296792
     5   Atom       -0.190055      0.390823     -0.171013
     6   Atom        0.003865      0.003306     -0.004032
     7   Atom       -0.005786      0.002009      0.002829
     8   Atom        0.011263     -0.006747     -0.012105
     9   Atom        0.018025     -0.007778     -0.017687
    10   Atom       -0.111653      0.156924     -0.082368
    11   Atom       -0.010060     -0.020596     -0.009440
    12   Atom       -0.025661      0.004725      0.019913
    13   Atom       -0.003315     -0.004124      0.004283
    14   Atom       -0.002022     -0.000965      0.004096
    15   Atom       -0.001173     -0.003426      0.005549
    16   Atom        0.006941      0.001138      0.001132
    17   Atom        0.005659     -0.001128     -0.000917
    18   Atom        0.002092      0.003371      0.003099
 --------------------------------------------------------


 ---------------------------------------------------------------------------------
              Anisotropic Spin Dipole Couplings in Principal Axis System
 ---------------------------------------------------------------------------------

       Atom             a.u.   MegaHertz   Gauss  10(-4) cm-1        Axes

              Baa    -1.2777    92.452    32.989    30.839 -0.6311 -0.2380  0.7383
     1 O(17)  Bbb    -1.1773    85.188    30.397    28.416  0.0852  0.9247  0.3710
              Bcc     2.4550  -177.640   -63.386   -59.254  0.7710 -0.2970  0.5633
 
              Baa    -0.3250    23.516     8.391     7.844  0.2427  0.8740  0.4210
     2 O(17)  Bbb    -0.0719     5.202     1.856     1.735 -0.6207 -0.1936  0.7597
              Bcc     0.3969   -28.718   -10.247    -9.579  0.7455 -0.4457  0.4955
 
              Baa    -0.4787   -64.239   -22.922   -21.428  0.5384 -0.4829  0.6906
     3 C(13)  Bbb     0.2199    29.510    10.530     9.843 -0.0675  0.7922  0.6066
              Bcc     0.2588    34.729    12.392    11.584  0.8400  0.3732 -0.3939
 
              Baa    -0.3082   -41.363   -14.759   -13.797  0.7149 -0.1662 -0.6792
     4 C(13)  Bbb    -0.2862   -38.409   -13.705   -12.812  0.4445  0.8578  0.2580
              Bcc     0.5945    79.772    28.464    26.609  0.5398 -0.4863  0.6871
 
              Baa    -0.2978   -39.966   -14.261   -13.331  0.2210  0.9524  0.2101
     5 C(13)  Bbb    -0.2850   -38.249   -13.648   -12.759 -0.6705 -0.0080  0.7419
              Bcc     0.5829    78.215    27.909    26.090  0.7082 -0.3048  0.6368
 
              Baa    -0.0083    -1.113    -0.397    -0.371 -0.3877  0.5219  0.7598
     6 C(13)  Bbb     0.0022     0.297     0.106     0.099 -0.3706  0.6664 -0.6469
              Bcc     0.0061     0.816     0.291     0.272  0.8440  0.5324  0.0649
 
              Baa    -0.0085    -1.146    -0.409    -0.382  0.7554  0.5952 -0.2739
     7 C(13)  Bbb     0.0032     0.434     0.155     0.145  0.5635 -0.3768  0.7351
              Bcc     0.0053     0.712     0.254     0.237 -0.3343  0.7097  0.6201
 
              Baa    -0.0149    -7.969    -2.844    -2.658  0.1082  0.4049  0.9079
     8 H(1)   Bbb    -0.0078    -4.146    -1.479    -1.383  0.8637 -0.4906  0.1158
              Bcc     0.0227    12.115     4.323     4.041  0.4923  0.7716 -0.4028
 
              Baa    -0.0320   -17.094    -6.100    -5.702 -0.1853  0.8161  0.5474
     9 H(1)   Bbb    -0.0037    -1.983    -0.708    -0.661  0.4787 -0.4116  0.7756
              Bcc     0.0358    19.077     6.807     6.363  0.8582  0.4057 -0.3144
 
              Baa    -0.1305   -69.624   -24.844   -23.224  0.6772  0.5260 -0.5145
    10 H(1)   Bbb    -0.1251   -66.771   -23.826   -22.273 -0.0902  0.7534  0.6514
              Bcc     0.2556   136.395    48.669    45.497  0.7302 -0.3947  0.5577
 
              Baa    -0.0413   -22.026    -7.859    -7.347  0.3372  0.9201  0.1991
    11 H(1)   Bbb    -0.0051    -2.721    -0.971    -0.908  0.8601 -0.3871  0.3322
              Bcc     0.0464    24.746     8.830     8.254 -0.3828 -0.0592  0.9219
 
              Baa    -0.0354   -18.896    -6.743    -6.303  0.7204  0.4666 -0.5131
    12 H(1)   Bbb    -0.0079    -4.192    -1.496    -1.398  0.5911 -0.0261  0.8062
              Bcc     0.0433    23.088     8.238     7.701 -0.3628  0.8841  0.2946
 
              Baa    -0.0052    -2.759    -0.985    -0.920  0.6226 -0.1713  0.7636
    13 H(1)   Bbb    -0.0028    -1.490    -0.532    -0.497  0.6020  0.7283 -0.3274
              Bcc     0.0080     4.249     1.516     1.417 -0.5000  0.6635  0.5565
 
              Baa    -0.0038    -2.028    -0.723    -0.676 -0.2130 -0.6398  0.7384
    14 H(1)   Bbb    -0.0017    -0.907    -0.324    -0.302  0.9241  0.1134  0.3648
              Bcc     0.0055     2.934     1.047     0.979 -0.3172  0.7601  0.5671
 
              Baa    -0.0061    -3.257    -1.162    -1.086 -0.1668  0.8192 -0.5487
    15 H(1)   Bbb    -0.0019    -1.028    -0.367    -0.343  0.9094  0.3429  0.2356
              Bcc     0.0080     4.284     1.529     1.429 -0.3811  0.4596  0.8022
 
              Baa    -0.0055    -2.953    -1.054    -0.985 -0.6287  0.7748 -0.0664
    16 H(1)   Bbb    -0.0033    -1.760    -0.628    -0.587 -0.1448 -0.0328  0.9889
              Bcc     0.0088     4.713     1.682     1.572  0.7641  0.6313  0.1328
 
              Baa    -0.0059    -3.166    -1.130    -1.056  0.1471  0.0072  0.9891
    17 H(1)   Bbb    -0.0029    -1.568    -0.560    -0.523  0.7797 -0.6162 -0.1115
              Bcc     0.0089     4.734     1.689     1.579  0.6086  0.7876 -0.0963
 
              Baa    -0.0056    -2.992    -1.068    -0.998  0.7268  0.0602 -0.6842
    18 H(1)   Bbb    -0.0012    -0.652    -0.233    -0.218  0.5968 -0.5485  0.5857
              Bcc     0.0068     3.645     1.300     1.216  0.3401  0.8340  0.4346
 

 ---------------------------------------------------------------------------------

 No NMR shielding tensors so no spin-rotation constants.
 Leave Link  601 at Mon Apr 30 12:18:12 2018, MaxMem=  671088640 cpu:      20.6
 (Enter /shared/apps/gaussian/G09_LINUX_LINDA/g09/l9999.exe)
 1\1\GINC-COMPUTE-3-045\FOpt\UHF\6-31G(d)\C5H11O2(2)\ROOT\30-Apr-2018\0
 \\#p hf/6-31g* Opt=(ModRedun,Loose) Int(Grid=SG1)\\Gaussian input prep
 ared by ASE\\0,2\O,-3.0908173113,-0.1084778459,0.0120210316\O,-2.72490
 34391,-1.1704025796,-0.7576027008\C,-0.0351023425,0.3863604614,-0.8064
 714581\C,0.909780948,-0.064117659,0.0604387103\C,-1.0940150478,1.35309
 70854,-0.5368808923\C,1.0434698738,0.3918307664,1.4914358669\C,1.93515
 36634,-1.0791091344,-0.3796224544\H,-2.2335555422,-1.7258916966,-0.163
 4289099\H,-0.0382742879,-0.0367634683,-1.7966533472\H,-2.1585416014,0.
 6977090391,-0.1421998794\H,-1.4846357165,1.8459234214,-1.4150896208\H,
 -0.9348256386,2.0441182896,0.276989346\H,2.006164769,0.8729187196,1.64
 95576464\H,0.2699419385,1.0838313554,1.7940874659\H,1.0053625921,-0.46
 12362153,2.1649690342\H,2.9423376108,-0.6820494061,-0.2737248051\H,1.8
 855973225,-1.9751532889,0.235692593\H,1.7969622093,-1.3723878443,-1.41
 35176261\\Version=EM64L-G09RevB.01\State=2-A\HF=-345.2582241\S2=0.9973
 9\S2-1=0.\S2A=0.775782\RMSD=5.246e-09\RMSF=1.774e-03\Dipole=1.1259244,
 -0.1108349,0.3689986\Quadrupole=-5.1699815,3.8947502,1.2752313,-0.9586
 069,-0.8385916,-0.8697872\PG=C01 [X(C5H11O2)]\\@


 AND ALL THIS SCIENCE I DON'T UNDERSTAND
 IT'S JUST MY JOB FIVE DAYS A WEEK

                           -- ELTON JOHN, "ROCKET MAN"
 Job cpu time:  0 days  3 hours 42 minutes 39.2 seconds.
 File lengths (MBytes):  RWF=     47 Int=      0 D2E=      0 Chk=      3 Scr=      1
 Normal termination of Gaussian 09 at Mon Apr 30 12:18:12 2018.
