 Entering Gaussian System, Link 0=g09
 Initial command:
 /shared/apps/gaussian/G09_LINUX_LINDA/g09/l1.exe /home/harms.n/Code/AutoTST/ipython_notebooks/Gau-44642.inp -scrdir=/home/harms.n/Code/AutoTST/ipython_notebooks/
 Entering Link 1 = /shared/apps/gaussian/G09_LINUX_LINDA/g09/l1.exe PID=     44643.
  
 Copyright (c) 1988,1990,1992,1993,1995,1998,2003,2009,2010,
            Gaussian, Inc.  All Rights Reserved.
  
 This is part of the Gaussian(R) 09 program.  It is based on
 the Gaussian(R) 03 system (copyright 2003, Gaussian, Inc.),
 the Gaussian(R) 98 system (copyright 1998, Gaussian, Inc.),
 the Gaussian(R) 94 system (copyright 1995, Gaussian, Inc.),
 the Gaussian 92(TM) system (copyright 1992, Gaussian, Inc.),
 the Gaussian 90(TM) system (copyright 1990, Gaussian, Inc.),
 the Gaussian 88(TM) system (copyright 1988, Gaussian, Inc.),
 the Gaussian 86(TM) system (copyright 1986, Carnegie Mellon
 University), and the Gaussian 82(TM) system (copyright 1983,
 Carnegie Mellon University). Gaussian is a federally registered
 trademark of Gaussian, Inc.
  
 This software contains proprietary and confidential information,
 including trade secrets, belonging to Gaussian, Inc.
  
 This software is provided under written license and may be
 used, copied, transmitted, or stored only in accord with that
 written license.
  
 The following legend is applicable only to US Government
 contracts under FAR:
  
                    RESTRICTED RIGHTS LEGEND
  
 Use, reproduction and disclosure by the US Government is
 subject to restrictions as set forth in subparagraphs (a)
 and (c) of the Commercial Computer Software - Restricted
 Rights clause in FAR 52.227-19.
  
 Gaussian, Inc.
 340 Quinnipiac St., Bldg. 40, Wallingford CT 06492
  
  
 ---------------------------------------------------------------
 Warning -- This program may not be used in any manner that
 competes with the business of Gaussian, Inc. or will provide
 assistance to any competitor of Gaussian, Inc.  The licensee
 of this program is prohibited from giving any competitor of
 Gaussian, Inc. access to this program.  By using this program,
 the user acknowledges that Gaussian, Inc. is engaged in the
 business of creating and licensing software in the field of
 computational chemistry and represents and warrants to the
 licensee that it is not a competitor of Gaussian, Inc. and that
 it will not use this program in any manner prohibited above.
 ---------------------------------------------------------------
  

 Cite this work as:
 Gaussian 09, Revision B.01,
 M. J. Frisch, G. W. Trucks, H. B. Schlegel, G. E. Scuseria, 
 M. A. Robb, J. R. Cheeseman, G. Scalmani, V. Barone, B. Mennucci, 
 G. A. Petersson, H. Nakatsuji, M. Caricato, X. Li, H. P. Hratchian, 
 A. F. Izmaylov, J. Bloino, G. Zheng, J. L. Sonnenberg, M. Hada, 
 M. Ehara, K. Toyota, R. Fukuda, J. Hasegawa, M. Ishida, T. Nakajima, 
 Y. Honda, O. Kitao, H. Nakai, T. Vreven, J. A. Montgomery, Jr., 
 J. E. Peralta, F. Ogliaro, M. Bearpark, J. J. Heyd, E. Brothers, 
 K. N. Kudin, V. N. Staroverov, T. Keith, R. Kobayashi, J. Normand, 
 K. Raghavachari, A. Rendell, J. C. Burant, S. S. Iyengar, J. Tomasi, 
 M. Cossi, N. Rega, J. M. Millam, M. Klene, J. E. Knox, J. B. Cross, 
 V. Bakken, C. Adamo, J. Jaramillo, R. Gomperts, R. E. Stratmann, 
 O. Yazyev, A. J. Austin, R. Cammi, C. Pomelli, J. W. Ochterski, 
 R. L. Martin, K. Morokuma, V. G. Zakrzewski, G. A. Voth, 
 P. Salvador, J. J. Dannenberg, S. Dapprich, A. D. Daniels, 
 O. Farkas, J. B. Foresman, J. V. Ortiz, J. Cioslowski, 
 and D. J. Fox, Gaussian, Inc., Wallingford CT, 2010.
 
 ******************************************
 Gaussian 09:  EM64L-G09RevB.01 12-Aug-2010
                30-Apr-2018 
 ******************************************
 %nprocshared=20
 Will use up to   20 processors via shared memory.
 %mem=5GB
 -------------------------------------------------
 #p hf/6-31g* opt=(ts,calcfc,noeigentest,ModRedun)
 -------------------------------------------------
 1/5=1,10=4,11=1,18=120,38=1/1,3;
 2/9=110,12=2,17=6,18=5,40=1/2;
 3/5=1,6=6,7=1,11=9,16=1,25=1,30=1,71=2/1,2,3;
 4//1;
 5/5=2,38=5/2;
 8/6=4,10=90,11=11/1;
 11/6=1,8=1,9=11,15=111,16=1/1,2,10;
 10/6=1,7=6,13=1/2;
 6/7=2,8=2,9=2,10=2,28=1/1;
 7/10=1,18=20,25=1/1,2,3,16;
 1/5=1,10=4,11=1,18=20/3(2);
 2/9=110/2;
 99//99;
 2/9=110/2;
 3/5=1,6=6,7=1,11=9,16=1,25=1,30=1,71=1/1,2,3;
 4/5=5,16=3/1;
 5/5=2,38=5/2;
 7//1,2,3,16;
 1/5=1,11=1,18=20/3(-5);
 2/9=110/2;
 6/7=2,8=2,9=2,10=2,19=2,28=1/1;
 99/9=1/99;
 Leave Link    1 at Mon Apr 30 12:18:12 2018, MaxMem=  671088640 cpu:       1.1
 (Enter /shared/apps/gaussian/G09_LINUX_LINDA/g09/l101.exe)
 ------------------------------
 Gaussian input prepared by ASE
 ------------------------------
 Symbolic Z-matrix:
 Charge =  0 Multiplicity = 2
 O                    -3.09082  -0.10848   0.01202 
 O                    -2.7249   -1.1704   -0.7576 
 C                    -0.0351    0.38636  -0.80647 
 C                     0.90978  -0.06412   0.06044 
 C                    -1.09402   1.3531   -0.53688 
 C                     1.04347   0.39183   1.49144 
 C                     1.93515  -1.07911  -0.37962 
 H                    -2.23356  -1.72589  -0.16343 
 H                    -0.03827  -0.03676  -1.79665 
 H                    -2.15854   0.69771  -0.1422 
 H                    -1.48464   1.84592  -1.41509 
 H                    -0.93483   2.04412   0.27699 
 H                     2.00616   0.87292   1.64956 
 H                     0.26994   1.08383   1.79409 
 H                     1.00536  -0.46124   2.16497 
 H                     2.94234  -0.68205  -0.27372 
 H                     1.8856   -1.97515   0.23569 
 H                     1.79696  -1.37239  -1.41352 
 
 NAtoms=     18 NQM=     18 NQMF=      0 NMic=      0 NMicF=      0 NTot=     18.
 The following ModRedundant input section has been read:
 B       2       3 F                                                           
 B       2       4 F                                                           
 B       2       6 F                                                           
 B       2       7 F                                                           
 B       2       8 F                                                           
 B       2       9 F                                                           
 B       2      11 F                                                           
 B       2      12 F                                                           
 B       2      13 F                                                           
 B       2      14 F                                                           
 B       2      15 F                                                           
 B       2      16 F                                                           
 B       2      17 F                                                           
 B       2      18 F                                                           
 B       3       4 F                                                           
 B       3       6 F                                                           
 B       3       7 F                                                           
 B       3       8 F                                                           
 B       3       9 F                                                           
 B       3      11 F                                                           
 B       3      12 F                                                           
 B       3      13 F                                                           
 B       3      14 F                                                           
 B       3      15 F                                                           
 B       3      16 F                                                           
 B       3      17 F                                                           
 B       3      18 F                                                           
 B       4       6 F                                                           
 B       4       7 F                                                           
 B       4       8 F                                                           
 B       4       9 F                                                           
 B       4      11 F                                                           
 B       4      12 F                                                           
 B       4      13 F                                                           
 B       4      14 F                                                           
 B       4      15 F                                                           
 B       4      16 F                                                           
 B       4      17 F                                                           
 B       4      18 F                                                           
 B       6       7 F                                                           
 B       6       8 F                                                           
 B       6       9 F                                                           
 B       6      11 F                                                           
 B       6      12 F                                                           
 B       6      13 F                                                           
 B       6      14 F                                                           
 B       6      15 F                                                           
 B       6      16 F                                                           
 B       6      17 F                                                           
 B       6      18 F                                                           
 B       7       8 F                                                           
 B       7       9 F                                                           
 B       7      11 F                                                           
 B       7      12 F                                                           
 B       7      13 F                                                           
 B       7      14 F                                                           
 B       7      15 F                                                           
 B       7      16 F                                                           
 B       7      17 F                                                           
 B       7      18 F                                                           
 B       8       9 F                                                           
 B       8      11 F                                                           
 B       8      12 F                                                           
 B       8      13 F                                                           
 B       8      14 F                                                           
 B       8      15 F                                                           
 B       8      16 F                                                           
 B       8      17 F                                                           
 B       8      18 F                                                           
 B       9      11 F                                                           
 B       9      12 F                                                           
 B       9      13 F                                                           
 B       9      14 F                                                           
 B       9      15 F                                                           
 B       9      16 F                                                           
 B       9      17 F                                                           
 B       9      18 F                                                           
 B      11      12 F                                                           
 B      11      13 F                                                           
 B      11      14 F                                                           
 B      11      15 F                                                           
 B      11      16 F                                                           
 B      11      17 F                                                           
 B      11      18 F                                                           
 B      12      13 F                                                           
 B      12      14 F                                                           
 B      12      15 F                                                           
 B      12      16 F                                                           
 B      12      17 F                                                           
 B      12      18 F                                                           
 B      13      14 F                                                           
 B      13      15 F                                                           
 B      13      16 F                                                           
 B      13      17 F                                                           
 B      13      18 F                                                           
 B      14      15 F                                                           
 B      14      16 F                                                           
 B      14      17 F                                                           
 B      14      18 F                                                           
 B      15      16 F                                                           
 B      15      17 F                                                           
 B      15      18 F                                                           
 B      16      17 F                                                           
 B      16      18 F                                                           
 B      17      18 F                                                           
                    Isotopes and Nuclear Properties:
 (Nuclear quadrupole moments (NQMom) in fm**2, nuclear magnetic moments (NMagM)
  in nuclear magnetons)

  Atom         1           2           3           4           5           6           7           8           9          10
 IAtWgt=          16          16          12          12          12          12          12           1           1           1
 AtmWgt=  15.9949146  15.9949146  12.0000000  12.0000000  12.0000000  12.0000000  12.0000000   1.0078250   1.0078250   1.0078250
 NucSpn=           0           0           0           0           0           0           0           1           1           1
 AtZEff=   0.0000000   0.0000000   0.0000000   0.0000000   0.0000000   0.0000000   0.0000000   0.0000000   0.0000000   0.0000000
 NQMom=    0.0000000   0.0000000   0.0000000   0.0000000   0.0000000   0.0000000   0.0000000   0.0000000   0.0000000   0.0000000
 NMagM=    0.0000000   0.0000000   0.0000000   0.0000000   0.0000000   0.0000000   0.0000000   2.7928460   2.7928460   2.7928460

  Atom        11          12          13          14          15          16          17          18
 IAtWgt=           1           1           1           1           1           1           1           1
 AtmWgt=   1.0078250   1.0078250   1.0078250   1.0078250   1.0078250   1.0078250   1.0078250   1.0078250
 NucSpn=           1           1           1           1           1           1           1           1
 AtZEff=   0.0000000   0.0000000   0.0000000   0.0000000   0.0000000   0.0000000   0.0000000   0.0000000
 NQMom=    0.0000000   0.0000000   0.0000000   0.0000000   0.0000000   0.0000000   0.0000000   0.0000000
 NMagM=    2.7928460   2.7928460   2.7928460   2.7928460   2.7928460   2.7928460   2.7928460   2.7928460
 Leave Link  101 at Mon Apr 30 12:18:13 2018, MaxMem=  671088640 cpu:       1.5
 (Enter /shared/apps/gaussian/G09_LINUX_LINDA/g09/l103.exe)

 GradGradGradGradGradGradGradGradGradGradGradGradGradGradGradGradGradGrad
 Berny optimization.
 Initialization pass.
                           ----------------------------
                           !    Initial Parameters    !
                           ! (Angstroms and Degrees)  !
 --------------------------                            --------------------------
 ! Name  Definition              Value          Derivative Info.                !
 --------------------------------------------------------------------------------
 ! R1    R(1,2)                  1.3616         calculate D2E/DX2 analytically  !
 ! R2    R(1,10)                 1.2421         calculate D2E/DX2 analytically  !
 ! R3    R(2,3)                  3.1082         frozen, calculate D2E/DX2 analyt!
 ! R4    R(2,4)                  3.8864         frozen, calculate D2E/DX2 analyt!
 ! R5    R(2,6)                  4.6583         frozen, calculate D2E/DX2 analyt!
 ! R6    R(2,7)                  4.6763         frozen, calculate D2E/DX2 analyt!
 ! R7    R(2,8)                  0.9503         frozen, calculate D2E/DX2 analyt!
 ! R8    R(2,9)                  3.0956         frozen, calculate D2E/DX2 analyt!
 ! R9    R(2,11)                 3.327          frozen, calculate D2E/DX2 analyt!
 ! R10   R(2,12)                 3.822          frozen, calculate D2E/DX2 analyt!
 ! R11   R(2,13)                 5.6879         frozen, calculate D2E/DX2 analyt!
 ! R12   R(2,14)                 4.5345         frozen, calculate D2E/DX2 analyt!
 ! R13   R(2,15)                 4.7916         frozen, calculate D2E/DX2 analyt!
 ! R14   R(2,16)                 5.7088         frozen, calculate D2E/DX2 analyt!
 ! R15   R(2,17)                 4.7845         frozen, calculate D2E/DX2 analyt!
 ! R16   R(2,18)                 4.5737         frozen, calculate D2E/DX2 analyt!
 ! R17   R(3,4)                  1.3591         frozen, calculate D2E/DX2 analyt!
 ! R18   R(3,5)                  1.459          calculate D2E/DX2 analytically  !
 ! R19   R(3,6)                  2.5384         frozen, calculate D2E/DX2 analyt!
 ! R20   R(3,7)                  2.4923         frozen, calculate D2E/DX2 analyt!
 ! R21   R(3,8)                  3.1158         frozen, calculate D2E/DX2 analyt!
 ! R22   R(3,9)                  1.0768         frozen, calculate D2E/DX2 analyt!
 ! R23   R(3,11)                 2.1452         frozen, calculate D2E/DX2 analyt!
 ! R24   R(3,12)                 2.1752         frozen, calculate D2E/DX2 analyt!
 ! R25   R(3,13)                 3.2304         frozen, calculate D2E/DX2 analyt!
 ! R26   R(3,14)                 2.7097         frozen, calculate D2E/DX2 analyt!
 ! R27   R(3,15)                 3.2604         frozen, calculate D2E/DX2 analyt!
 ! R28   R(3,16)                 3.2079         frozen, calculate D2E/DX2 analyt!
 ! R29   R(3,17)                 3.2174         frozen, calculate D2E/DX2 analyt!
 ! R30   R(3,18)                 2.6112         frozen, calculate D2E/DX2 analyt!
 ! R31   R(4,6)                  1.5078         frozen, calculate D2E/DX2 analyt!
 ! R32   R(4,7)                  1.5084         frozen, calculate D2E/DX2 analyt!
 ! R33   R(4,8)                  3.5626         frozen, calculate D2E/DX2 analyt!
 ! R34   R(4,9)                  2.0853         frozen, calculate D2E/DX2 analyt!
 ! R35   R(4,11)                 3.3998         frozen, calculate D2E/DX2 analyt!
 ! R36   R(4,12)                 2.8096         frozen, calculate D2E/DX2 analyt!
 ! R37   R(4,13)                 2.146          frozen, calculate D2E/DX2 analyt!
 ! R38   R(4,14)                 2.1755         frozen, calculate D2E/DX2 analyt!
 ! R39   R(4,15)                 2.1438         frozen, calculate D2E/DX2 analyt!
 ! R40   R(4,16)                 2.1505         frozen, calculate D2E/DX2 analyt!
 ! R41   R(4,17)                 2.1529         frozen, calculate D2E/DX2 analyt!
 ! R42   R(4,18)                 2.1613         frozen, calculate D2E/DX2 analyt!
 ! R43   R(5,10)                 1.3109         calculate D2E/DX2 analytically  !
 ! R44   R(5,11)                 1.0801         calculate D2E/DX2 analytically  !
 ! R45   R(5,12)                 1.0795         calculate D2E/DX2 analytically  !
 ! R46   R(6,7)                  2.5416         frozen, calculate D2E/DX2 analyt!
 ! R47   R(6,8)                  4.2382         frozen, calculate D2E/DX2 analyt!
 ! R48   R(6,9)                  3.4879         frozen, calculate D2E/DX2 analyt!
 ! R49   R(6,11)                 4.1175         frozen, calculate D2E/DX2 analyt!
 ! R50   R(6,12)                 2.8493         frozen, calculate D2E/DX2 analyt!
 ! R51   R(6,13)                 1.0878         frozen, calculate D2E/DX2 analyt!
 ! R52   R(6,14)                 1.0811         frozen, calculate D2E/DX2 analyt!
 ! R53   R(6,15)                 1.0876         frozen, calculate D2E/DX2 analyt!
 ! R54   R(6,16)                 2.8062         frozen, calculate D2E/DX2 analyt!
 ! R55   R(6,17)                 2.8087         frozen, calculate D2E/DX2 analyt!
 ! R56   R(6,18)                 3.4812         frozen, calculate D2E/DX2 analyt!
 ! R57   R(7,8)                  4.2241         frozen, calculate D2E/DX2 analyt!
 ! R58   R(7,9)                  2.6436         frozen, calculate D2E/DX2 analyt!
 ! R59   R(7,11)                 4.6177         frozen, calculate D2E/DX2 analyt!
 ! R60   R(7,12)                 4.2921         frozen, calculate D2E/DX2 analyt!
 ! R61   R(7,13)                 2.8166         frozen, calculate D2E/DX2 analyt!
 ! R62   R(7,14)                 3.4894         frozen, calculate D2E/DX2 analyt!
 ! R63   R(7,15)                 2.7787         frozen, calculate D2E/DX2 analyt!
 ! R64   R(7,16)                 1.0878         frozen, calculate D2E/DX2 analyt!
 ! R65   R(7,17)                 1.0881         frozen, calculate D2E/DX2 analyt!
 ! R66   R(7,18)                 1.0835         frozen, calculate D2E/DX2 analyt!
 ! R67   R(8,9)                  3.2156         frozen, calculate D2E/DX2 analyt!
 ! R68   R(8,11)                 3.8582         frozen, calculate D2E/DX2 analyt!
 ! R69   R(8,12)                 4.0117         frozen, calculate D2E/DX2 analyt!
 ! R70   R(8,13)                 5.293          frozen, calculate D2E/DX2 analyt!
 ! R71   R(8,14)                 4.2419         frozen, calculate D2E/DX2 analyt!
 ! R72   R(8,15)                 4.1847         frozen, calculate D2E/DX2 analyt!
 ! R73   R(8,16)                 5.2813         frozen, calculate D2E/DX2 analyt!
 ! R74   R(8,17)                 4.1459         frozen, calculate D2E/DX2 analyt!
 ! R75   R(8,18)                 4.2347         frozen, calculate D2E/DX2 analyt!
 ! R76   R(9,11)                 2.4046         frozen, calculate D2E/DX2 analyt!
 ! R77   R(9,12)                 3.0715         frozen, calculate D2E/DX2 analyt!
 ! R78   R(9,13)                 4.109          frozen, calculate D2E/DX2 analyt!
 ! R79   R(9,14)                 3.7741         frozen, calculate D2E/DX2 analyt!
 ! R80   R(9,15)                 4.1187         frozen, calculate D2E/DX2 analyt!
 ! R81   R(9,16)                 3.4088         frozen, calculate D2E/DX2 analyt!
 ! R82   R(9,17)                 3.4043         frozen, calculate D2E/DX2 analyt!
 ! R83   R(9,18)                 2.3019         frozen, calculate D2E/DX2 analyt!
 ! R84   R(11,12)                1.7902         frozen, calculate D2E/DX2 analyt!
 ! R85   R(11,13)                4.746          frozen, calculate D2E/DX2 analyt!
 ! R86   R(11,14)                3.7361         frozen, calculate D2E/DX2 analyt!
 ! R87   R(11,15)                4.9335         frozen, calculate D2E/DX2 analyt!
 ! R88   R(11,16)                5.2241         frozen, calculate D2E/DX2 analyt!
 ! R89   R(11,17)                5.3558         frozen, calculate D2E/DX2 analyt!
 ! R90   R(11,18)                4.5963         frozen, calculate D2E/DX2 analyt!
 ! R91   R(12,13)                3.4504         frozen, calculate D2E/DX2 analyt!
 ! R92   R(12,14)                2.1622         frozen, calculate D2E/DX2 analyt!
 ! R93   R(12,15)                3.6886         frozen, calculate D2E/DX2 analyt!
 ! R94   R(12,16)                4.7715         frozen, calculate D2E/DX2 analyt!
 ! R95   R(12,17)                4.9103         frozen, calculate D2E/DX2 analyt!
 ! R96   R(12,18)                4.6897         frozen, calculate D2E/DX2 analyt!
 ! R97   R(13,14)                1.7549         frozen, calculate D2E/DX2 analyt!
 ! R98   R(13,15)                1.7456         frozen, calculate D2E/DX2 analyt!
 ! R99   R(13,16)                2.6445         frozen, calculate D2E/DX2 analyt!
 ! R100  R(13,17)                3.182          frozen, calculate D2E/DX2 analyt!
 ! R101  R(13,18)                3.8036         frozen, calculate D2E/DX2 analyt!
 ! R102  R(14,15)                1.7509         frozen, calculate D2E/DX2 analyt!
 ! R103  R(14,16)                3.8126         frozen, calculate D2E/DX2 analyt!
 ! R104  R(14,17)                3.7942         frozen, calculate D2E/DX2 analyt!
 ! R105  R(14,18)                4.319          frozen, calculate D2E/DX2 analyt!
 ! R106  R(15,16)                3.1222         frozen, calculate D2E/DX2 analyt!
 ! R107  R(15,17)                2.6055         frozen, calculate D2E/DX2 analyt!
 ! R108  R(15,18)                3.7766         frozen, calculate D2E/DX2 analyt!
 ! R109  R(16,17)                1.7459         frozen, calculate D2E/DX2 analyt!
 ! R110  R(16,18)                1.7572         frozen, calculate D2E/DX2 analyt!
 ! R111  R(17,18)                1.7581         frozen, calculate D2E/DX2 analyt!
 ! A1    A(2,1,10)             103.5513         calculate D2E/DX2 analytically  !
 ! A2    A(1,2,8)              103.9712         calculate D2E/DX2 analytically  !
 ! A3    A(4,3,5)              127.3254         calculate D2E/DX2 analytically  !
 ! A4    A(4,3,9)              117.2798         calculate D2E/DX2 analytically  !
 ! A5    A(5,3,9)              115.3505         calculate D2E/DX2 analytically  !
 ! A6    A(3,4,6)              124.5242         calculate D2E/DX2 analytically  !
 ! A7    A(3,4,7)              120.6324         calculate D2E/DX2 analytically  !
 ! A8    A(6,4,7)              114.8398         calculate D2E/DX2 analytically  !
 ! A9    A(3,5,10)             108.2848         calculate D2E/DX2 analytically  !
 ! A10   A(3,5,11)             114.492          calculate D2E/DX2 analytically  !
 ! A11   A(3,5,12)             117.1592         calculate D2E/DX2 analytically  !
 ! A12   A(10,5,11)            100.3245         calculate D2E/DX2 analytically  !
 ! A13   A(10,5,12)            102.2864         calculate D2E/DX2 analytically  !
 ! A14   A(11,5,12)            111.9786         calculate D2E/DX2 analytically  !
 ! A15   A(4,6,13)             110.4975         calculate D2E/DX2 analytically  !
 ! A16   A(4,6,14)             113.3157         calculate D2E/DX2 analytically  !
 ! A17   A(4,6,15)             110.3315         calculate D2E/DX2 analytically  !
 ! A18   A(13,6,14)            108.0256         calculate D2E/DX2 analytically  !
 ! A19   A(13,6,15)            106.7319         calculate D2E/DX2 analytically  !
 ! A20   A(14,6,15)            107.6754         calculate D2E/DX2 analytically  !
 ! A21   A(4,7,16)             110.8172         calculate D2E/DX2 analytically  !
 ! A22   A(4,7,17)             110.9889         calculate D2E/DX2 analytically  !
 ! A23   A(4,7,18)             111.9508         calculate D2E/DX2 analytically  !
 ! A24   A(16,7,17)            106.7206         calculate D2E/DX2 analytically  !
 ! A25   A(16,7,18)            108.0457         calculate D2E/DX2 analytically  !
 ! A26   A(17,7,18)            108.1126         calculate D2E/DX2 analytically  !
 ! A27   A(1,10,5)             166.2508         calculate D2E/DX2 analytically  !
 ! D1    D(10,1,2,8)            90.752          calculate D2E/DX2 analytically  !
 ! D2    D(2,1,10,5)            11.8949         calculate D2E/DX2 analytically  !
 ! D3    D(5,3,4,6)             -1.1243         calculate D2E/DX2 analytically  !
 ! D4    D(5,3,4,7)            179.5976         calculate D2E/DX2 analytically  !
 ! D5    D(9,3,4,6)           -178.576          calculate D2E/DX2 analytically  !
 ! D6    D(9,3,4,7)              2.1459         calculate D2E/DX2 analytically  !
 ! D7    D(4,3,5,10)           -91.2572         calculate D2E/DX2 analytically  !
 ! D8    D(4,3,5,11)           157.7687         calculate D2E/DX2 analytically  !
 ! D9    D(4,3,5,12)            23.6661         calculate D2E/DX2 analytically  !
 ! D10   D(9,3,5,10)            86.2367         calculate D2E/DX2 analytically  !
 ! D11   D(9,3,5,11)           -24.7374         calculate D2E/DX2 analytically  !
 ! D12   D(9,3,5,12)          -158.84           calculate D2E/DX2 analytically  !
 ! D13   D(3,4,6,13)          -118.054          calculate D2E/DX2 analytically  !
 ! D14   D(3,4,6,14)             3.3356         calculate D2E/DX2 analytically  !
 ! D15   D(3,4,6,15)           124.1521         calculate D2E/DX2 analytically  !
 ! D16   D(7,4,6,13)            61.2615         calculate D2E/DX2 analytically  !
 ! D17   D(7,4,6,14)          -177.3489         calculate D2E/DX2 analytically  !
 ! D18   D(7,4,6,15)           -56.5325         calculate D2E/DX2 analytically  !
 ! D19   D(3,4,7,16)           120.1301         calculate D2E/DX2 analytically  !
 ! D20   D(3,4,7,17)          -121.4757         calculate D2E/DX2 analytically  !
 ! D21   D(3,4,7,18)            -0.5702         calculate D2E/DX2 analytically  !
 ! D22   D(6,4,7,16)           -59.2145         calculate D2E/DX2 analytically  !
 ! D23   D(6,4,7,17)            59.1797         calculate D2E/DX2 analytically  !
 ! D24   D(6,4,7,18)          -179.9148         calculate D2E/DX2 analytically  !
 ! D25   D(3,5,10,1)           -42.22           calculate D2E/DX2 analytically  !
 ! D26   D(11,5,10,1)           78.0445         calculate D2E/DX2 analytically  !
 ! D27   D(12,5,10,1)         -166.5507         calculate D2E/DX2 analytically  !
 --------------------------------------------------------------------------------
 Trust Radius=3.00D-01 FncErr=1.00D-07 GrdErr=1.00D-07
 Number of steps in this run=    108 maximum allowed number of steps=    108.
 Search for a saddle point of order  1.
 GradGradGradGradGradGradGradGradGradGradGradGradGradGradGradGradGradGrad

 Leave Link  103 at Mon Apr 30 12:18:13 2018, MaxMem=  671088640 cpu:       0.2
 (Enter /shared/apps/gaussian/G09_LINUX_LINDA/g09/l202.exe)
                          Input orientation:                          
 ---------------------------------------------------------------------
 Center     Atomic      Atomic             Coordinates (Angstroms)
 Number     Number       Type             X           Y           Z
 ---------------------------------------------------------------------
      1          8           0       -3.090817   -0.108478    0.012021
      2          8           0       -2.724903   -1.170403   -0.757603
      3          6           0       -0.035102    0.386360   -0.806471
      4          6           0        0.909781   -0.064118    0.060439
      5          6           0       -1.094015    1.353097   -0.536881
      6          6           0        1.043470    0.391831    1.491436
      7          6           0        1.935154   -1.079109   -0.379622
      8          1           0       -2.233556   -1.725892   -0.163429
      9          1           0       -0.038274   -0.036763   -1.796653
     10          1           0       -2.158542    0.697709   -0.142200
     11          1           0       -1.484636    1.845923   -1.415090
     12          1           0       -0.934826    2.044118    0.276989
     13          1           0        2.006165    0.872919    1.649558
     14          1           0        0.269942    1.083831    1.794087
     15          1           0        1.005363   -0.461236    2.164969
     16          1           0        2.942338   -0.682049   -0.273725
     17          1           0        1.885597   -1.975153    0.235693
     18          1           0        1.796962   -1.372388   -1.413518
 ---------------------------------------------------------------------
                    Distance matrix (angstroms):
                    1          2          3          4          5
     1  O    0.000000
     2  O    1.361579   0.000000
     3  C    3.201904   3.108204   0.000000
     4  C    4.001137   3.886385   1.359142   0.000000
     5  C    2.534702   3.012734   1.458957   2.525963   0.000000
     6  C    4.419424   4.658260   2.538450   1.507818   3.099507
     7  C    5.133799   4.676252   2.492330   1.508393   3.887958
     8  H    1.838942   0.950281   3.115816   3.562608   3.304269
     9  H    3.548868   3.095600   1.076803   2.085269   2.152517
    10  H    1.242119   2.046785   2.246595   3.167972   1.310925
    11  H    2.904505   3.326977   2.145201   3.399805   1.080145
    12  H    3.058133   3.822029   2.175213   2.809649   1.079461
    13  H    5.442783   5.687934   3.230416   2.146018   3.823898
    14  H    3.986485   4.534511   2.709691   2.175481   2.714092
    15  H    4.640939   4.791579   3.260436   2.143802   3.872878
    16  H    6.067091   5.708787   3.207876   2.150533   4.528048
    17  H    5.319700   4.784452   3.217443   2.152902   4.533455
    18  H    5.245952   4.573652   2.611161   2.161298   4.068723
                    6          7          8          9         10
     6  C    0.000000
     7  C    2.541579   0.000000
     8  H    4.238186   4.224122   0.000000
     9  H    3.487893   2.643649   3.215562   0.000000
    10  H    3.607659   4.468981   2.424854   2.787867   0.000000
    11  H    4.117474   4.617680   3.858160   2.404592   1.841954
    12  H    2.849314   4.292140   4.011688   3.071460   1.867088
    13  H    1.087764   2.816563   5.293011   4.108969   4.537166
    14  H    1.081114   3.489449   4.241923   3.774142   3.129829
    15  H    1.087576   2.778709   4.184660   4.118714   4.083684
    16  H    2.806191   1.087791   5.281254   3.408776   5.285830
    17  H    2.808680   1.088101   4.145944   3.404272   4.862310
    18  H    3.481232   1.083535   4.234709   2.301908   4.641935
                   11         12         13         14         15
    11  H    0.000000
    12  H    1.790169   0.000000
    13  H    4.745997   3.450373   0.000000
    14  H    3.736060   2.162222   1.754948   0.000000
    15  H    4.933548   3.688577   1.745630   1.750894   0.000000
    16  H    5.224122   4.771548   2.644496   3.812595   3.122156
    17  H    5.355761   4.910299   3.181991   3.794249   2.605545
    18  H    4.596348   4.689669   3.803630   4.318974   3.776558
                   16         17         18
    16  H    0.000000
    17  H    1.745945   0.000000
    18  H    1.757151   1.758146   0.000000
 Stoichiometry    C5H11O2(2)
 Framework group  C1[X(C5H11O2)]
 Deg. of freedom    48
 Full point group                 C1      NOp   1
 Largest Abelian subgroup         C1      NOp   1
 Largest concise Abelian subgroup C1      NOp   1
                         Standard orientation:                         
 ---------------------------------------------------------------------
 Center     Atomic      Atomic             Coordinates (Angstroms)
 Number     Number       Type             X           Y           Z
 ---------------------------------------------------------------------
      1          8           0       -2.559423   -0.214001   -0.525742
      2          8           0       -2.327377    1.103536   -0.272465
      3          6           0        0.309123   -0.063206    0.888789
      4          6           0        1.390093    0.023026    0.069438
      5          6           0       -0.691063   -1.124750    0.924941
      6          6           0        1.765608   -1.011182   -0.961541
      7          6           0        2.328172    1.201052    0.156121
      8          1           0       -1.739635    1.371134   -0.969590
      9          1           0        0.137648    0.755104    1.567367
     10          1           0       -1.670027   -0.795128    0.117784
     11          1           0       -1.228053   -1.202424    1.858923
     12          1           0       -0.396981   -2.091928    0.546366
     13          1           0        2.739578   -1.439097   -0.734603
     14          1           0        1.053148   -1.821055   -1.034442
     15          1           0        1.846313   -0.552885   -1.944532
     16          1           0        3.337296    0.874685    0.397875
     17          1           0        2.387759    1.722771   -0.796886
     18          1           0        2.015759    1.912917    0.910902
 ---------------------------------------------------------------------
 Rotational constants (GHZ):      3.6610792      1.2173308      1.1197890
 Leave Link  202 at Mon Apr 30 12:18:13 2018, MaxMem=  671088640 cpu:       0.8
 (Enter /shared/apps/gaussian/G09_LINUX_LINDA/g09/l301.exe)
 Standard basis: 6-31G(d) (6D, 7F)
 Ernie: Thresh=  0.10000D-02 Tol=  0.10000D-05 Strict=F.
 There are   127 symmetry adapted basis functions of A   symmetry.
 Integral buffers will be    131072 words long.
 Raffenetti 2 integral format.
 Two-electron integral symmetry is turned on.
   127 basis functions,   240 primitive gaussians,   127 cartesian basis functions
    29 alpha electrons       28 beta electrons
       nuclear repulsion energy       304.0207180057 Hartrees.
 IExCor=    0 DFT=F Ex=HF Corr=None ExCW=0 ScaHFX=  1.000000
 ScaDFX=  1.000000  1.000000  1.000000  1.000000 ScalE2=  1.000000  1.000000
 IRadAn=      0 IRanWt=     -1 IRanGd=            0 ICorTp=0
 NAtoms=   18 NActive=   18 NUniq=   18 SFac= 1.00D+00 NAtFMM=   50 NAOKFM=F Big=F
 Leave Link  301 at Mon Apr 30 12:18:13 2018, MaxMem=  671088640 cpu:       0.9
 (Enter /shared/apps/gaussian/G09_LINUX_LINDA/g09/l302.exe)
 NPDir=0 NMtPBC=     1 NCelOv=     1 NCel=       1 NClECP=     1 NCelD=      1
         NCelK=      1 NCelE2=     1 NClLst=     1 CellRange=     0.0.
 One-electron integrals computed using PRISM.
 NBasis=   127 RedAO= T  NBF=   127
 NBsUse=   127 1.00D-06 NBFU=   127
 Leave Link  302 at Mon Apr 30 12:18:14 2018, MaxMem=  671088640 cpu:       6.6
 (Enter /shared/apps/gaussian/G09_LINUX_LINDA/g09/l303.exe)
 DipDrv:  MaxL=1.
 Leave Link  303 at Mon Apr 30 12:18:14 2018, MaxMem=  671088640 cpu:       1.8
 (Enter /shared/apps/gaussian/G09_LINUX_LINDA/g09/l401.exe)
 Harris functional with IExCor=  205 diagonalized for initial guess.
 ExpMin= 1.61D-01 ExpMax= 5.48D+03 ExpMxC= 8.25D+02 IAcc=1 IRadAn=         1 AccDes= 0.00D+00
 HarFok:  IExCor=  205 AccDes= 0.00D+00 IRadAn=         1 IDoV= 1
 ScaDFX=  1.000000  1.000000  1.000000  1.000000
 FoFCou: FMM=F IPFlag=           0 FMFlag=      100000 FMFlg1=           0
         NFxFlg=           0 DoJE=T BraDBF=F KetDBF=T FulRan=T
         Omega=  0.000000  0.000000  1.000000  0.000000  0.000000 ICntrl=     500 IOpCl=  0
         NMat0=    1 NMatS0=    1 NMatT0=    0 NMatD0=    1 NMtDS0=    0 NMtDT0=    0
         I1Cent=           4 NGrid=           0.
 Petite list used in FoFCou.
 Harris En= -345.812553516619    
 Initial guess orbital symmetries:
 Alpha Orbitals:
       Occupied  (A) (A) (A) (A) (A) (A) (A) (A) (A) (A) (A) (A)
                 (A) (A) (A) (A) (A) (A) (A) (A) (A) (A) (A) (A)
                 (A) (A) (A) (A) (A)
       Virtual   (A) (A) (A) (A) (A) (A) (A) (A) (A) (A) (A) (A)
                 (A) (A) (A) (A) (A) (A) (A) (A) (A) (A) (A) (A)
                 (A) (A) (A) (A) (A) (A) (A) (A) (A) (A) (A) (A)
                 (A) (A) (A) (A) (A) (A) (A) (A) (A) (A) (A) (A)
                 (A) (A) (A) (A) (A) (A) (A) (A) (A) (A) (A) (A)
                 (A) (A) (A) (A) (A) (A) (A) (A) (A) (A) (A) (A)
                 (A) (A) (A) (A) (A) (A) (A) (A) (A) (A) (A) (A)
                 (A) (A) (A) (A) (A) (A) (A) (A) (A) (A) (A) (A)
                 (A) (A)
 Beta  Orbitals:
       Occupied  (A) (A) (A) (A) (A) (A) (A) (A) (A) (A) (A) (A)
                 (A) (A) (A) (A) (A) (A) (A) (A) (A) (A) (A) (A)
                 (A) (A) (A) (A)
       Virtual   (A) (A) (A) (A) (A) (A) (A) (A) (A) (A) (A) (A)
                 (A) (A) (A) (A) (A) (A) (A) (A) (A) (A) (A) (A)
                 (A) (A) (A) (A) (A) (A) (A) (A) (A) (A) (A) (A)
                 (A) (A) (A) (A) (A) (A) (A) (A) (A) (A) (A) (A)
                 (A) (A) (A) (A) (A) (A) (A) (A) (A) (A) (A) (A)
                 (A) (A) (A) (A) (A) (A) (A) (A) (A) (A) (A) (A)
                 (A) (A) (A) (A) (A) (A) (A) (A) (A) (A) (A) (A)
                 (A) (A) (A) (A) (A) (A) (A) (A) (A) (A) (A) (A)
                 (A) (A) (A)
 The electronic state of the initial guess is 2-A.
 Initial guess <Sx>= 0.0000 <Sy>= 0.0000 <Sz>= 0.5000 <S**2>= 0.7500 S= 0.5000
 Leave Link  401 at Mon Apr 30 12:18:20 2018, MaxMem=  671088640 cpu:      53.7
 (Enter /shared/apps/gaussian/G09_LINUX_LINDA/g09/l502.exe)
 UHF open shell SCF:
 Requested convergence on RMS density matrix=1.00D-08 within 128 cycles.
 Requested convergence on MAX density matrix=1.00D-06.
 Requested convergence on             energy=1.00D-06.
 No special actions if energy rises.
 Using DIIS extrapolation, IDIIS=  1040.
 Integral symmetry usage will be decided dynamically.
 Keep R1 and R2 ints in memory in canonical form, NReq=67191093.
 IEnd=       70048 IEndB=       70048 NGot=   671088640 MDV=   604978949
 LenX=   604978949 LenY=   604962379
 Symmetry not used in FoFDir.
 MinBra= 0 MaxBra= 2 Meth= 1.
 IRaf=       0 NMat=   1 IRICut=       1 DoRegI=T DoRafI=F ISym2E= 0 JSym2E=0.

 Cycle   1  Pass 1  IDiag  1:
 E= -344.874624899107    
 DIIS: error= 4.89D-02 at cycle   1 NSaved=   1.
 NSaved= 1 IEnMin= 1 EnMin= -344.874624899107     IErMin= 1 ErrMin= 4.89D-02
 ErrMax= 4.89D-02 EMaxC= 1.00D-01 BMatC= 1.99D+00 BMatP= 1.99D+00
 IDIUse=3 WtCom= 5.11D-01 WtEn= 4.89D-01
 Coeff-Com:  0.100D+01
 Coeff-En:   0.100D+01
 Coeff:      0.100D+01
 Gap=     0.577 Goal=   None    Shift=    0.000
 Gap=     0.534 Goal=   None    Shift=    0.000
 GapD=    0.534 DampG=2.000 DampE=0.500 DampFc=1.0000 IDamp=-1.
 RMSDP=5.66D-03 MaxDP=1.13D-01              OVMax= 1.99D-01

 Cycle   2  Pass 1  IDiag  1:
 E= -345.189264246407     Delta-E=       -0.314639347300 Rises=F Damp=F
 DIIS: error= 1.82D-02 at cycle   2 NSaved=   2.
 NSaved= 2 IEnMin= 2 EnMin= -345.189264246407     IErMin= 2 ErrMin= 1.82D-02
 ErrMax= 1.82D-02 EMaxC= 1.00D-01 BMatC= 2.14D-01 BMatP= 1.99D+00
 IDIUse=3 WtCom= 8.18D-01 WtEn= 1.82D-01
 Coeff-Com:  0.172D+00 0.828D+00
 Coeff-En:   0.000D+00 0.100D+01
 Coeff:      0.140D+00 0.860D+00
 Gap=     0.566 Goal=   None    Shift=    0.000
 Gap=     0.356 Goal=   None    Shift=    0.000
 RMSDP=2.47D-03 MaxDP=4.37D-02 DE=-3.15D-01 OVMax= 8.93D-02

 Cycle   3  Pass 1  IDiag  1:
 E= -345.242263951644     Delta-E=       -0.052999705237 Rises=F Damp=F
 DIIS: error= 5.74D-03 at cycle   3 NSaved=   3.
 NSaved= 3 IEnMin= 3 EnMin= -345.242263951644     IErMin= 3 ErrMin= 5.74D-03
 ErrMax= 5.74D-03 EMaxC= 1.00D-01 BMatC= 1.88D-02 BMatP= 2.14D-01
 IDIUse=3 WtCom= 9.43D-01 WtEn= 5.74D-02
 Coeff-Com: -0.202D-01 0.148D+00 0.872D+00
 Coeff-En:   0.000D+00 0.000D+00 0.100D+01
 Coeff:     -0.190D-01 0.140D+00 0.879D+00
 Gap=     0.498 Goal=   None    Shift=    0.000
 Gap=     0.361 Goal=   None    Shift=    0.000
 RMSDP=6.80D-04 MaxDP=1.59D-02 DE=-5.30D-02 OVMax= 4.97D-02

 Cycle   4  Pass 1  IDiag  1:
 E= -345.250548688370     Delta-E=       -0.008284736726 Rises=F Damp=F
 DIIS: error= 4.45D-03 at cycle   4 NSaved=   4.
 NSaved= 4 IEnMin= 4 EnMin= -345.250548688370     IErMin= 4 ErrMin= 4.45D-03
 ErrMax= 4.45D-03 EMaxC= 1.00D-01 BMatC= 3.82D-03 BMatP= 1.88D-02
 IDIUse=3 WtCom= 9.55D-01 WtEn= 4.45D-02
 Coeff-Com: -0.686D-02-0.197D-01 0.826D-01 0.944D+00
 Coeff-En:   0.000D+00 0.000D+00 0.000D+00 0.100D+01
 Coeff:     -0.656D-02-0.188D-01 0.789D-01 0.946D+00
 Gap=     0.497 Goal=   None    Shift=    0.000
 Gap=     0.379 Goal=   None    Shift=    0.000
 RMSDP=3.78D-04 MaxDP=1.20D-02 DE=-8.28D-03 OVMax= 3.02D-02

 Cycle   5  Pass 1  IDiag  1:
 E= -345.253651285408     Delta-E=       -0.003102597038 Rises=F Damp=F
 DIIS: error= 2.52D-03 at cycle   5 NSaved=   5.
 NSaved= 5 IEnMin= 5 EnMin= -345.253651285408     IErMin= 5 ErrMin= 2.52D-03
 ErrMax= 2.52D-03 EMaxC= 1.00D-01 BMatC= 1.96D-03 BMatP= 3.82D-03
 IDIUse=3 WtCom= 9.75D-01 WtEn= 2.52D-02
 Coeff-Com:  0.121D-01-0.666D-01-0.440D+00-0.128D+00 0.162D+01
 Coeff-En:   0.000D+00 0.000D+00 0.000D+00 0.000D+00 0.100D+01
 Coeff:      0.118D-01-0.649D-01-0.429D+00-0.125D+00 0.161D+01
 Gap=     0.508 Goal=   None    Shift=    0.000
 Gap=     0.406 Goal=   None    Shift=    0.000
 RMSDP=5.86D-04 MaxDP=1.95D-02 DE=-3.10D-03 OVMax= 4.23D-02

 Cycle   6  Pass 1  IDiag  1:
 E= -345.256512048393     Delta-E=       -0.002860762984 Rises=F Damp=F
 DIIS: error= 1.32D-03 at cycle   6 NSaved=   6.
 NSaved= 6 IEnMin= 6 EnMin= -345.256512048393     IErMin= 6 ErrMin= 1.32D-03
 ErrMax= 1.32D-03 EMaxC= 1.00D-01 BMatC= 4.85D-04 BMatP= 1.96D-03
 IDIUse=3 WtCom= 9.87D-01 WtEn= 1.32D-02
 Coeff-Com:  0.278D-02 0.223D-02-0.494D-01-0.170D+00 0.183D+00 0.103D+01
 Coeff-En:   0.000D+00 0.000D+00 0.000D+00 0.000D+00 0.000D+00 0.100D+01
 Coeff:      0.274D-02 0.220D-02-0.487D-01-0.168D+00 0.181D+00 0.103D+01
 Gap=     0.510 Goal=   None    Shift=    0.000
 Gap=     0.414 Goal=   None    Shift=    0.000
 RMSDP=2.02D-04 MaxDP=4.55D-03 DE=-2.86D-03 OVMax= 1.61D-02

 Cycle   7  Pass 1  IDiag  1:
 E= -345.257106636582     Delta-E=       -0.000594588189 Rises=F Damp=F
 DIIS: error= 8.79D-04 at cycle   7 NSaved=   7.
 NSaved= 7 IEnMin= 7 EnMin= -345.257106636582     IErMin= 7 ErrMin= 8.79D-04
 ErrMax= 8.79D-04 EMaxC= 1.00D-01 BMatC= 2.50D-04 BMatP= 4.85D-04
 IDIUse=3 WtCom= 9.91D-01 WtEn= 8.79D-03
 Coeff-Com: -0.337D-02 0.231D-01 0.131D+00 0.228D-01-0.508D+00 0.110D+00
 Coeff-Com:  0.122D+01
 Coeff-En:   0.000D+00 0.000D+00 0.000D+00 0.000D+00 0.000D+00 0.000D+00
 Coeff-En:   0.100D+01
 Coeff:     -0.334D-02 0.229D-01 0.129D+00 0.226D-01-0.503D+00 0.109D+00
 Coeff:      0.122D+01
 Gap=     0.512 Goal=   None    Shift=    0.000
 Gap=     0.417 Goal=   None    Shift=    0.000
 RMSDP=1.94D-04 MaxDP=4.52D-03 DE=-5.95D-04 OVMax= 1.75D-02

 Cycle   8  Pass 1  IDiag  1:
 E= -345.257555992725     Delta-E=       -0.000449356143 Rises=F Damp=F
 DIIS: error= 6.88D-04 at cycle   8 NSaved=   8.
 NSaved= 8 IEnMin= 8 EnMin= -345.257555992725     IErMin= 8 ErrMin= 6.88D-04
 ErrMax= 6.88D-04 EMaxC= 1.00D-01 BMatC= 1.35D-04 BMatP= 2.50D-04
 IDIUse=3 WtCom= 9.93D-01 WtEn= 6.88D-03
 Coeff-Com:  0.223D-02-0.233D-01-0.109D+00 0.691D-01 0.354D+00-0.572D+00
 Coeff-Com: -0.114D+01 0.242D+01
 Coeff-En:   0.000D+00 0.000D+00 0.000D+00 0.000D+00 0.000D+00 0.000D+00
 Coeff-En:   0.000D+00 0.100D+01
 Coeff:      0.221D-02-0.231D-01-0.108D+00 0.687D-01 0.352D+00-0.568D+00
 Coeff:     -0.113D+01 0.241D+01
 Gap=     0.517 Goal=   None    Shift=    0.000
 Gap=     0.424 Goal=   None    Shift=    0.000
 RMSDP=2.98D-04 MaxDP=7.04D-03 DE=-4.49D-04 OVMax= 2.81D-02

 Cycle   9  Pass 1  IDiag  1:
 E= -345.258030962965     Delta-E=       -0.000474970240 Rises=F Damp=F
 DIIS: error= 4.59D-04 at cycle   9 NSaved=   9.
 NSaved= 9 IEnMin= 9 EnMin= -345.258030962965     IErMin= 9 ErrMin= 4.59D-04
 ErrMax= 4.59D-04 EMaxC= 1.00D-01 BMatC= 4.58D-05 BMatP= 1.35D-04
 IDIUse=3 WtCom= 9.95D-01 WtEn= 4.59D-03
 Coeff-Com:  0.141D-02-0.537D-02-0.425D-01-0.599D-01 0.228D+00 0.143D+00
 Coeff-Com: -0.200D+00-0.100D+01 0.194D+01
 Coeff-En:   0.000D+00 0.000D+00 0.000D+00 0.000D+00 0.000D+00 0.000D+00
 Coeff-En:   0.000D+00 0.000D+00 0.100D+01
 Coeff:      0.141D-02-0.535D-02-0.424D-01-0.596D-01 0.227D+00 0.142D+00
 Coeff:     -0.199D+00-0.100D+01 0.194D+01
 Gap=     0.522 Goal=   None    Shift=    0.000
 Gap=     0.426 Goal=   None    Shift=    0.000
 RMSDP=2.25D-04 MaxDP=5.53D-03 DE=-4.75D-04 OVMax= 2.09D-02

 Cycle  10  Pass 1  IDiag  1:
 E= -345.258200850167     Delta-E=       -0.000169887201 Rises=F Damp=F
 DIIS: error= 1.94D-04 at cycle  10 NSaved=  10.
 NSaved=10 IEnMin=10 EnMin= -345.258200850167     IErMin=10 ErrMin= 1.94D-04
 ErrMax= 1.94D-04 EMaxC= 1.00D-01 BMatC= 7.90D-06 BMatP= 4.58D-05
 IDIUse=3 WtCom= 9.98D-01 WtEn= 1.94D-03
 Coeff-Com: -0.457D-03 0.455D-02 0.231D-01-0.237D-01-0.576D-01 0.987D-01
 Coeff-Com:  0.219D+00-0.317D+00-0.263D+00 0.132D+01
 Coeff-En:   0.000D+00 0.000D+00 0.000D+00 0.000D+00 0.000D+00 0.000D+00
 Coeff-En:   0.000D+00 0.000D+00 0.000D+00 0.100D+01
 Coeff:     -0.457D-03 0.454D-02 0.230D-01-0.236D-01-0.575D-01 0.985D-01
 Coeff:      0.219D+00-0.317D+00-0.262D+00 0.132D+01
 Gap=     0.523 Goal=   None    Shift=    0.000
 Gap=     0.426 Goal=   None    Shift=    0.000
 RMSDP=5.27D-05 MaxDP=1.25D-03 DE=-1.70D-04 OVMax= 5.08D-03

 Cycle  11  Pass 1  IDiag  1:
 E= -345.258217108087     Delta-E=       -0.000016257920 Rises=F Damp=F
 DIIS: error= 1.07D-04 at cycle  11 NSaved=  11.
 NSaved=11 IEnMin=11 EnMin= -345.258217108087     IErMin=11 ErrMin= 1.07D-04
 ErrMax= 1.07D-04 EMaxC= 1.00D-01 BMatC= 2.36D-06 BMatP= 7.90D-06
 IDIUse=3 WtCom= 9.99D-01 WtEn= 1.07D-03
 Coeff-Com: -0.288D-03 0.106D-02 0.992D-02 0.593D-02-0.401D-01-0.267D-01
 Coeff-Com:  0.827D-02 0.257D+00-0.424D+00-0.125D+00 0.133D+01
 Coeff-En:   0.000D+00 0.000D+00 0.000D+00 0.000D+00 0.000D+00 0.000D+00
 Coeff-En:   0.000D+00 0.000D+00 0.000D+00 0.000D+00 0.100D+01
 Coeff:     -0.288D-03 0.106D-02 0.991D-02 0.593D-02-0.400D-01-0.267D-01
 Coeff:      0.826D-02 0.257D+00-0.423D+00-0.124D+00 0.133D+01
 Gap=     0.523 Goal=   None    Shift=    0.000
 Gap=     0.427 Goal=   None    Shift=    0.000
 RMSDP=2.58D-05 MaxDP=5.78D-04 DE=-1.63D-05 OVMax= 2.58D-03

 Cycle  12  Pass 1  IDiag  1:
 E= -345.258221634891     Delta-E=       -0.000004526804 Rises=F Damp=F
 DIIS: error= 6.54D-05 at cycle  12 NSaved=  12.
 NSaved=12 IEnMin=12 EnMin= -345.258221634891     IErMin=12 ErrMin= 6.54D-05
 ErrMax= 6.54D-05 EMaxC= 1.00D-01 BMatC= 8.42D-07 BMatP= 2.36D-06
 IDIUse=1 WtCom= 1.00D+00 WtEn= 0.00D+00
 Coeff-Com:  0.224D-03-0.153D-02-0.851D-02-0.488D-02 0.388D-01-0.120D-01
 Coeff-Com: -0.740D-01-0.793D-02 0.221D+00-0.304D+00-0.437D+00 0.159D+01
 Coeff:      0.224D-03-0.153D-02-0.851D-02-0.488D-02 0.388D-01-0.120D-01
 Coeff:     -0.740D-01-0.793D-02 0.221D+00-0.304D+00-0.437D+00 0.159D+01
 Gap=     0.524 Goal=   None    Shift=    0.000
 Gap=     0.427 Goal=   None    Shift=    0.000
 RMSDP=1.77D-05 MaxDP=3.10D-04 DE=-4.53D-06 OVMax= 1.76D-03

 Cycle  13  Pass 1  IDiag  1:
 E= -345.258223319532     Delta-E=       -0.000001684641 Rises=F Damp=F
 DIIS: error= 3.70D-05 at cycle  13 NSaved=  13.
 NSaved=13 IEnMin=13 EnMin= -345.258223319532     IErMin=13 ErrMin= 3.70D-05
 ErrMax= 3.70D-05 EMaxC= 1.00D-01 BMatC= 2.96D-07 BMatP= 8.42D-07
 IDIUse=1 WtCom= 1.00D+00 WtEn= 0.00D+00
 Coeff-Com:  0.633D-04-0.161D-03-0.175D-02-0.473D-02 0.162D-01 0.644D-02
 Coeff-Com:  0.766D-02-0.846D-01 0.125D+00 0.818D-01-0.428D+00-0.183D+00
 Coeff-Com:  0.147D+01
 Coeff:      0.633D-04-0.161D-03-0.175D-02-0.473D-02 0.162D-01 0.644D-02
 Coeff:      0.766D-02-0.846D-01 0.125D+00 0.818D-01-0.428D+00-0.183D+00
 Coeff:      0.147D+01
 Gap=     0.524 Goal=   None    Shift=    0.000
 Gap=     0.427 Goal=   None    Shift=    0.000
 RMSDP=9.87D-06 MaxDP=2.81D-04 DE=-1.68D-06 OVMax= 8.78D-04

 Cycle  14  Pass 1  IDiag  1:
 E= -345.258223878591     Delta-E=       -0.000000559059 Rises=F Damp=F
 DIIS: error= 1.87D-05 at cycle  14 NSaved=  14.
 NSaved=14 IEnMin=14 EnMin= -345.258223878591     IErMin=14 ErrMin= 1.87D-05
 ErrMax= 1.87D-05 EMaxC= 1.00D-01 BMatC= 8.65D-08 BMatP= 2.96D-07
 IDIUse=1 WtCom= 1.00D+00 WtEn= 0.00D+00
 Coeff-Com: -0.712D-04 0.476D-03 0.303D-02 0.362D-03-0.112D-01 0.295D-02
 Coeff-Com:  0.229D-01 0.966D-02-0.878D-01 0.111D+00 0.189D+00-0.615D+00
 Coeff-Com:  0.768D-02 0.137D+01
 Coeff:     -0.712D-04 0.476D-03 0.303D-02 0.362D-03-0.112D-01 0.295D-02
 Coeff:      0.229D-01 0.966D-02-0.878D-01 0.111D+00 0.189D+00-0.615D+00
 Coeff:      0.768D-02 0.137D+01
 Gap=     0.524 Goal=   None    Shift=    0.000
 Gap=     0.427 Goal=   None    Shift=    0.000
 RMSDP=5.89D-06 MaxDP=1.66D-04 DE=-5.59D-07 OVMax= 5.19D-04

 Cycle  15  Pass 1  IDiag  1:
 E= -345.258224041209     Delta-E=       -0.000000162618 Rises=F Damp=F
 DIIS: error= 9.23D-06 at cycle  15 NSaved=  15.
 NSaved=15 IEnMin=15 EnMin= -345.258224041209     IErMin=15 ErrMin= 9.23D-06
 ErrMax= 9.23D-06 EMaxC= 1.00D-01 BMatC= 2.06D-08 BMatP= 8.65D-08
 IDIUse=1 WtCom= 1.00D+00 WtEn= 0.00D+00
 Coeff-Com:  0.122D-04-0.133D-03-0.555D-03 0.333D-03 0.241D-04-0.100D-02
 Coeff-Com: -0.113D-01 0.164D-01-0.207D-02-0.541D-01 0.469D-01 0.210D+00
 Coeff-Com: -0.309D+00-0.511D+00 0.162D+01
 Coeff:      0.122D-04-0.133D-03-0.555D-03 0.333D-03 0.241D-04-0.100D-02
 Coeff:     -0.113D-01 0.164D-01-0.207D-02-0.541D-01 0.469D-01 0.210D+00
 Coeff:     -0.309D+00-0.511D+00 0.162D+01
 Gap=     0.524 Goal=   None    Shift=    0.000
 Gap=     0.427 Goal=   None    Shift=    0.000
 RMSDP=3.43D-06 MaxDP=7.53D-05 DE=-1.63D-07 OVMax= 2.85D-04

 Cycle  16  Pass 1  IDiag  1:
 E= -345.258224080425     Delta-E=       -0.000000039215 Rises=F Damp=F
 DIIS: error= 6.09D-06 at cycle  16 NSaved=  16.
 NSaved=16 IEnMin=16 EnMin= -345.258224080425     IErMin=16 ErrMin= 6.09D-06
 ErrMax= 6.09D-06 EMaxC= 1.00D-01 BMatC= 5.15D-09 BMatP= 2.06D-08
 IDIUse=1 WtCom= 1.00D+00 WtEn= 0.00D+00
 Coeff-Com:  0.710D-05-0.384D-04-0.377D-03-0.657D-04 0.211D-02-0.101D-02
 Coeff-Com: -0.712D-03-0.369D-02 0.152D-01-0.894D-02-0.490D-01 0.928D-01
 Coeff-Com:  0.615D-01-0.190D+00-0.409D+00 0.149D+01
 Coeff:      0.710D-05-0.384D-04-0.377D-03-0.657D-04 0.211D-02-0.101D-02
 Coeff:     -0.712D-03-0.369D-02 0.152D-01-0.894D-02-0.490D-01 0.928D-01
 Coeff:      0.615D-01-0.190D+00-0.409D+00 0.149D+01
 Gap=     0.524 Goal=   None    Shift=    0.000
 Gap=     0.427 Goal=   None    Shift=    0.000
 RMSDP=1.19D-06 MaxDP=3.76D-05 DE=-3.92D-08 OVMax= 6.17D-05

 Cycle  17  Pass 1  IDiag  1:
 E= -345.258224087559     Delta-E=       -0.000000007134 Rises=F Damp=F
 DIIS: error= 2.98D-06 at cycle  17 NSaved=  17.
 NSaved=17 IEnMin=17 EnMin= -345.258224087559     IErMin=17 ErrMin= 2.98D-06
 ErrMax= 2.98D-06 EMaxC= 1.00D-01 BMatC= 1.38D-09 BMatP= 5.15D-09
 IDIUse=1 WtCom= 1.00D+00 WtEn= 0.00D+00
 Coeff-Com: -0.437D-05 0.428D-04 0.187D-03-0.247D-04-0.414D-03 0.461D-03
 Coeff-Com:  0.348D-02-0.426D-02-0.209D-02 0.160D-01-0.651D-02-0.686D-01
 Coeff-Com:  0.722D-01 0.166D+00-0.388D+00-0.152D+00 0.136D+01
 Coeff:     -0.437D-05 0.428D-04 0.187D-03-0.247D-04-0.414D-03 0.461D-03
 Coeff:      0.348D-02-0.426D-02-0.209D-02 0.160D-01-0.651D-02-0.686D-01
 Coeff:      0.722D-01 0.166D+00-0.388D+00-0.152D+00 0.136D+01
 Gap=     0.524 Goal=   None    Shift=    0.000
 Gap=     0.427 Goal=   None    Shift=    0.000
 RMSDP=5.09D-07 MaxDP=1.98D-05 DE=-7.13D-09 OVMax= 2.91D-05

 Cycle  18  Pass 1  IDiag  1:
 E= -345.258224089477     Delta-E=       -0.000000001918 Rises=F Damp=F
 DIIS: error= 1.71D-06 at cycle  18 NSaved=  18.
 NSaved=18 IEnMin=18 EnMin= -345.258224089477     IErMin=18 ErrMin= 1.71D-06
 ErrMax= 1.71D-06 EMaxC= 1.00D-01 BMatC= 4.98D-10 BMatP= 1.38D-09
 IDIUse=1 WtCom= 1.00D+00 WtEn= 0.00D+00
 Coeff-Com: -0.989D-06 0.726D-06 0.519D-04 0.872D-04-0.702D-03 0.379D-03
 Coeff-Com: -0.637D-03 0.187D-02-0.395D-02-0.226D-02 0.161D-01-0.585D-02
 Coeff-Com: -0.360D-01-0.175D-02 0.222D+00-0.302D+00-0.568D+00 0.168D+01
 Coeff:     -0.989D-06 0.726D-06 0.519D-04 0.872D-04-0.702D-03 0.379D-03
 Coeff:     -0.637D-03 0.187D-02-0.395D-02-0.226D-02 0.161D-01-0.585D-02
 Coeff:     -0.360D-01-0.175D-02 0.222D+00-0.302D+00-0.568D+00 0.168D+01
 Gap=     0.524 Goal=   None    Shift=    0.000
 Gap=     0.427 Goal=   None    Shift=    0.000
 RMSDP=4.18D-07 MaxDP=1.09D-05 DE=-1.92D-09 OVMax= 2.80D-05

 Cycle  19  Pass 1  IDiag  1:
 E= -345.258224090313     Delta-E=       -0.000000000836 Rises=F Damp=F
 DIIS: error= 8.19D-07 at cycle  19 NSaved=  19.
 NSaved=19 IEnMin=19 EnMin= -345.258224090313     IErMin=19 ErrMin= 8.19D-07
 ErrMax= 8.19D-07 EMaxC= 1.00D-01 BMatC= 1.63D-10 BMatP= 4.98D-10
 IDIUse=1 WtCom= 1.00D+00 WtEn= 0.00D+00
 Coeff-Com: -0.662D-06 0.364D-05 0.158D-04 0.807D-04-0.810D-04-0.305D-03
 Coeff-Com:  0.231D-04 0.137D-02-0.516D-03-0.195D-02 0.643D-03 0.154D-01
 Coeff-Com: -0.105D-01-0.360D-01 0.291D-01 0.177D+00-0.295D+00-0.609D+00
 Coeff-Com:  0.173D+01
 Coeff:     -0.662D-06 0.364D-05 0.158D-04 0.807D-04-0.810D-04-0.305D-03
 Coeff:      0.231D-04 0.137D-02-0.516D-03-0.195D-02 0.643D-03 0.154D-01
 Coeff:     -0.105D-01-0.360D-01 0.291D-01 0.177D+00-0.295D+00-0.609D+00
 Coeff:      0.173D+01
 Gap=     0.524 Goal=   None    Shift=    0.000
 Gap=     0.427 Goal=   None    Shift=    0.000
 RMSDP=2.75D-07 MaxDP=8.56D-06 DE=-8.36D-10 OVMax= 1.71D-05

 Cycle  20  Pass 1  IDiag  1:
 E= -345.258224090617     Delta-E=       -0.000000000305 Rises=F Damp=F
 DIIS: error= 4.00D-07 at cycle  20 NSaved=  20.
 NSaved=20 IEnMin=20 EnMin= -345.258224090617     IErMin=20 ErrMin= 4.00D-07
 ErrMax= 4.00D-07 EMaxC= 1.00D-01 BMatC= 3.59D-11 BMatP= 1.63D-10
 IDIUse=1 WtCom= 1.00D+00 WtEn= 0.00D+00
 Coeff-Com: -0.105D-06 0.215D-05-0.114D-05-0.309D-04 0.121D-03 0.393D-04
 Coeff-Com:  0.418D-03-0.128D-02 0.108D-02 0.197D-02-0.499D-02-0.638D-02
 Coeff-Com:  0.176D-01 0.151D-01-0.838D-01 0.328D-01 0.281D+00-0.345D+00
 Coeff-Com: -0.512D+00 0.160D+01
 Coeff:     -0.105D-06 0.215D-05-0.114D-05-0.309D-04 0.121D-03 0.393D-04
 Coeff:      0.418D-03-0.128D-02 0.108D-02 0.197D-02-0.499D-02-0.638D-02
 Coeff:      0.176D-01 0.151D-01-0.838D-01 0.328D-01 0.281D+00-0.345D+00
 Coeff:     -0.512D+00 0.160D+01
 Gap=     0.524 Goal=   None    Shift=    0.000
 Gap=     0.427 Goal=   None    Shift=    0.000
 RMSDP=1.28D-07 MaxDP=3.88D-06 DE=-3.05D-10 OVMax= 7.07D-06

 Cycle  21  Pass 1  IDiag  1:
 E= -345.258224090684     Delta-E=       -0.000000000067 Rises=F Damp=F
 DIIS: error= 1.51D-07 at cycle  21 NSaved=  20.
 NSaved=20 IEnMin=20 EnMin= -345.258224090684     IErMin=20 ErrMin= 1.51D-07
 ErrMax= 1.51D-07 EMaxC= 1.00D-01 BMatC= 4.37D-12 BMatP= 3.59D-11
 IDIUse=1 WtCom= 1.00D+00 WtEn= 0.00D+00
 Coeff-Com:  0.148D-06 0.146D-05-0.707D-05-0.213D-04 0.591D-04 0.112D-04
 Coeff-Com: -0.128D-03-0.830D-04 0.306D-03 0.385D-03-0.286D-02 0.161D-02
 Coeff-Com:  0.342D-02 0.201D-02-0.303D-01 0.264D-01 0.120D+00-0.190D+00
 Coeff-Com: -0.270D+00 0.134D+01
 Coeff:      0.148D-06 0.146D-05-0.707D-05-0.213D-04 0.591D-04 0.112D-04
 Coeff:     -0.128D-03-0.830D-04 0.306D-03 0.385D-03-0.286D-02 0.161D-02
 Coeff:      0.342D-02 0.201D-02-0.303D-01 0.264D-01 0.120D+00-0.190D+00
 Coeff:     -0.270D+00 0.134D+01
 Gap=     0.524 Goal=   None    Shift=    0.000
 Gap=     0.427 Goal=   None    Shift=    0.000
 RMSDP=3.74D-08 MaxDP=1.03D-06 DE=-6.65D-11 OVMax= 2.40D-06

 Cycle  22  Pass 1  IDiag  1:
 E= -345.258224090688     Delta-E=       -0.000000000005 Rises=F Damp=F
 DIIS: error= 4.08D-08 at cycle  22 NSaved=  20.
 NSaved=20 IEnMin=20 EnMin= -345.258224090688     IErMin=20 ErrMin= 4.08D-08
 ErrMax= 4.08D-08 EMaxC= 1.00D-01 BMatC= 6.91D-13 BMatP= 4.37D-12
 IDIUse=1 WtCom= 1.00D+00 WtEn= 0.00D+00
 Coeff-Com:  0.112D-05 0.576D-05-0.176D-04-0.115D-04-0.413D-04 0.188D-03
 Coeff-Com: -0.167D-03-0.252D-03 0.695D-03 0.926D-03-0.224D-02-0.234D-02
 Coeff-Com:  0.116D-01-0.425D-02-0.376D-01 0.413D-01 0.816D-01-0.213D+00
 Coeff-Com: -0.619D-01 0.119D+01
 Coeff:      0.112D-05 0.576D-05-0.176D-04-0.115D-04-0.413D-04 0.188D-03
 Coeff:     -0.167D-03-0.252D-03 0.695D-03 0.926D-03-0.224D-02-0.234D-02
 Coeff:      0.116D-01-0.425D-02-0.376D-01 0.413D-01 0.816D-01-0.213D+00
 Coeff:     -0.619D-01 0.119D+01
 Gap=     0.524 Goal=   None    Shift=    0.000
 Gap=     0.427 Goal=   None    Shift=    0.000
 RMSDP=1.19D-08 MaxDP=2.42D-07 DE=-4.55D-12 OVMax= 8.68D-07

 Cycle  23  Pass 1  IDiag  1:
 E= -345.258224090689     Delta-E=       -0.000000000001 Rises=F Damp=F
 DIIS: error= 1.92D-08 at cycle  23 NSaved=  20.
 NSaved=20 IEnMin=20 EnMin= -345.258224090689     IErMin=20 ErrMin= 1.92D-08
 ErrMax= 1.92D-08 EMaxC= 1.00D-01 BMatC= 1.49D-13 BMatP= 6.91D-13
 IDIUse=1 WtCom= 1.00D+00 WtEn= 0.00D+00
 Coeff-Com:  0.560D-06 0.271D-05-0.832D-05 0.235D-05 0.528D-05 0.218D-04
 Coeff-Com: -0.468D-04-0.989D-04 0.440D-03-0.258D-03-0.457D-03-0.586D-03
 Coeff-Com:  0.467D-02-0.224D-02-0.216D-01 0.232D-01 0.693D-01-0.232D+00
 Coeff-Com: -0.128D+00 0.129D+01
 Coeff:      0.560D-06 0.271D-05-0.832D-05 0.235D-05 0.528D-05 0.218D-04
 Coeff:     -0.468D-04-0.989D-04 0.440D-03-0.258D-03-0.457D-03-0.586D-03
 Coeff:      0.467D-02-0.224D-02-0.216D-01 0.232D-01 0.693D-01-0.232D+00
 Coeff:     -0.128D+00 0.129D+01
 Gap=     0.524 Goal=   None    Shift=    0.000
 Gap=     0.427 Goal=   None    Shift=    0.000
 RMSDP=4.52D-09 MaxDP=1.08D-07 DE=-6.82D-13 OVMax= 1.88D-07

 SCF Done:  E(UHF) =  -345.258224091     A.U. after   23 cycles
             Convg  =    0.4518D-08             -V/T =  2.0014
 <Sx>= 0.0000 <Sy>= 0.0000 <Sz>= 0.5000 <S**2>= 0.9974 S= 0.6169
 <L.S>= 0.000000000000E+00
 KE= 3.447819436564D+02 PE=-1.417836783947D+03 EE= 4.237758981946D+02
 Annihilation of the first spin contaminant:
 S**2 before annihilation     0.9974,   after     0.7758
 Leave Link  502 at Mon Apr 30 12:18:57 2018, MaxMem=  671088640 cpu:     374.3
 (Enter /shared/apps/gaussian/G09_LINUX_LINDA/g09/l801.exe)
 Range of M.O.s used for correlation:     1   127
 NBasis=   127 NAE=    29 NBE=    28 NFC=     0 NFV=     0
 NROrb=    127 NOA=    29 NOB=    28 NVA=    98 NVB=    99
 Leave Link  801 at Mon Apr 30 12:18:57 2018, MaxMem=  671088640 cpu:       0.4
 (Enter /shared/apps/gaussian/G09_LINUX_LINDA/g09/l1101.exe)
 Using compressed storage, NAtomX=    18.
 Will process  19 centers per pass.
 Leave Link 1101 at Mon Apr 30 12:18:58 2018, MaxMem=  671088640 cpu:       7.4
 (Enter /shared/apps/gaussian/G09_LINUX_LINDA/g09/l1102.exe)
 Symmetrizing basis deriv contribution to polar:
 IMax=3 JMax=2 DiffMx= 0.00D+00
 Leave Link 1102 at Mon Apr 30 12:18:59 2018, MaxMem=  671088640 cpu:       1.1
 (Enter /shared/apps/gaussian/G09_LINUX_LINDA/g09/l1110.exe)
 Forming Gx(P) for the SCF density, NAtomX=    18.
 Integral derivatives from FoFDir/FoFCou, PRISM(SPDF).
 Do as many integral derivatives as possible in FoFDir.
 G2DrvN: MDV=     671088392.
 G2DrvN: will do    19 centers at a time, making    1 passes doing MaxLOS=2.
 Calling FoFCou, ICntrl=  3107 FMM=F I1Cent=   0 AccDes= 0.00D+00.
 FoFCou: FMM=F IPFlag=           0 FMFlag=      100000 FMFlg1=           0
         NFxFlg=           0 DoJE=F BraDBF=F KetDBF=F FulRan=T
         Omega=  0.000000  0.000000  1.000000  0.000000  0.000000 ICntrl=    3107 IOpCl=  1
         NMat0=    1 NMatS0=    1 NMatT0=    0 NMatD0=    1 NMtDS0=    0 NMtDT0=    0
         I1Cent=           0 NGrid=           0.
 Symmetry not used in FoFCou.
 FoFDir/FoFCou used for L=0 through L=2.
 End of G2Drv Frequency-dependent properties file   721 does not exist.
 End of G2Drv Frequency-dependent properties file   722 does not exist.
 Leave Link 1110 at Mon Apr 30 12:19:02 2018, MaxMem=  671088640 cpu:      30.2
 (Enter /shared/apps/gaussian/G09_LINUX_LINDA/g09/l1002.exe)
 Minotr:  UHF open shell wavefunction.
          IDoAtm=111111111111111111
          Direct CPHF calculation.
          Differentiating once with respect to nuclear coordinates.
          Requested convergence is 1.0D-06 RMS, and 1.0D-05 maximum.
          Secondary convergence is 1.0D-12 RMS, and 1.0D-12 maximum.
          NewPWx=T KeepS1=F KeepF1=F KeepIn=T MapXYZ=F SortEE=F KeepMc=T.
          MDV=     671088456 using IRadAn=       2.
          Keep R1 and R2 ints in memory in canonical form, NReq=66894031.
 Symmetry not used in FoFDir.
 MinBra= 0 MaxBra= 2 Meth= 1.
 IRaf=       0 NMat=   1 IRICut=       1 DoRegI=T DoRafI=F ISym2E= 0 JSym2E=0.
          Solving linear equations simultaneously, MaxMat=       0.
          There are    57 degrees of freedom in the 1st order CPHF.  IDoFFX=5.
     51 vectors produced by pass  0 Test12= 9.85D-11 1.75D-07 XBig12= 1.11D-01 1.42D-01.
 AX will form    51 AO Fock derivatives at one time.
     51 vectors produced by pass  1 Test12= 9.85D-11 1.75D-07 XBig12= 9.66D-03 5.06D-02.
     51 vectors produced by pass  2 Test12= 9.85D-11 1.75D-07 XBig12= 6.25D-04 5.15D-03.
     51 vectors produced by pass  3 Test12= 9.85D-11 1.75D-07 XBig12= 1.87D-05 9.78D-04.
     51 vectors produced by pass  4 Test12= 9.85D-11 1.75D-07 XBig12= 3.69D-07 7.54D-05.
     32 vectors produced by pass  5 Test12= 9.85D-11 1.75D-07 XBig12= 4.67D-09 8.85D-06.
      7 vectors produced by pass  6 Test12= 9.85D-11 1.75D-07 XBig12= 6.11D-11 9.25D-07.
 Inverted reduced A of dimension   294 with in-core refinement.
 End of Minotr Frequency-dependent properties file   721 does not exist.
 End of Minotr Frequency-dependent properties file   722 does not exist.
 Leave Link 1002 at Mon Apr 30 12:19:21 2018, MaxMem=  671088640 cpu:     193.7
 (Enter /shared/apps/gaussian/G09_LINUX_LINDA/g09/l601.exe)
 Copying SCF densities to generalized density rwf, IOpCl= 1 IROHF=0.

 **********************************************************************

            Population analysis using the SCF density.

 **********************************************************************

 Orbital symmetries:
 Alpha Orbitals:
       Occupied  (A) (A) (A) (A) (A) (A) (A) (A) (A) (A) (A) (A)
                 (A) (A) (A) (A) (A) (A) (A) (A) (A) (A) (A) (A)
                 (A) (A) (A) (A) (A)
       Virtual   (A) (A) (A) (A) (A) (A) (A) (A) (A) (A) (A) (A)
                 (A) (A) (A) (A) (A) (A) (A) (A) (A) (A) (A) (A)
                 (A) (A) (A) (A) (A) (A) (A) (A) (A) (A) (A) (A)
                 (A) (A) (A) (A) (A) (A) (A) (A) (A) (A) (A) (A)
                 (A) (A) (A) (A) (A) (A) (A) (A) (A) (A) (A) (A)
                 (A) (A) (A) (A) (A) (A) (A) (A) (A) (A) (A) (A)
                 (A) (A) (A) (A) (A) (A) (A) (A) (A) (A) (A) (A)
                 (A) (A) (A) (A) (A) (A) (A) (A) (A) (A) (A) (A)
                 (A) (A)
 Beta  Orbitals:
       Occupied  (A) (A) (A) (A) (A) (A) (A) (A) (A) (A) (A) (A)
                 (A) (A) (A) (A) (A) (A) (A) (A) (A) (A) (A) (A)
                 (A) (A) (A) (A)
       Virtual   (A) (A) (A) (A) (A) (A) (A) (A) (A) (A) (A) (A)
                 (A) (A) (A) (A) (A) (A) (A) (A) (A) (A) (A) (A)
                 (A) (A) (A) (A) (A) (A) (A) (A) (A) (A) (A) (A)
                 (A) (A) (A) (A) (A) (A) (A) (A) (A) (A) (A) (A)
                 (A) (A) (A) (A) (A) (A) (A) (A) (A) (A) (A) (A)
                 (A) (A) (A) (A) (A) (A) (A) (A) (A) (A) (A) (A)
                 (A) (A) (A) (A) (A) (A) (A) (A) (A) (A) (A) (A)
                 (A) (A) (A) (A) (A) (A) (A) (A) (A) (A) (A) (A)
                 (A) (A) (A)
 The electronic state is 2-A.
 Alpha  occ. eigenvalues --  -20.64807 -20.62949 -11.24954 -11.24262 -11.22489
 Alpha  occ. eigenvalues --  -11.22399 -11.22377  -1.51559  -1.18364  -1.11305
 Alpha  occ. eigenvalues --   -1.01260  -0.95059  -0.88167  -0.74560  -0.71984
 Alpha  occ. eigenvalues --   -0.71486  -0.64587  -0.62669  -0.61311  -0.60958
 Alpha  occ. eigenvalues --   -0.55654  -0.54891  -0.53401  -0.51636  -0.51369
 Alpha  occ. eigenvalues --   -0.48624  -0.48447  -0.44210  -0.33566
 Alpha virt. eigenvalues --    0.18806   0.22062   0.24219   0.26406   0.26908
 Alpha virt. eigenvalues --    0.29434   0.31472   0.31629   0.33185   0.33919
 Alpha virt. eigenvalues --    0.35961   0.38132   0.38955   0.42651   0.45962
 Alpha virt. eigenvalues --    0.50089   0.59555   0.67713   0.70516   0.74212
 Alpha virt. eigenvalues --    0.75654   0.77460   0.79454   0.83483   0.85149
 Alpha virt. eigenvalues --    0.92910   0.94175   0.95125   0.97922   0.98839
 Alpha virt. eigenvalues --    1.02798   1.04894   1.07366   1.07653   1.12268
 Alpha virt. eigenvalues --    1.13317   1.14127   1.17075   1.17414   1.18582
 Alpha virt. eigenvalues --    1.19269   1.21439   1.21792   1.23970   1.25128
 Alpha virt. eigenvalues --    1.27797   1.29993   1.31387   1.35020   1.41179
 Alpha virt. eigenvalues --    1.45687   1.53895   1.56067   1.61128   1.65724
 Alpha virt. eigenvalues --    1.68829   1.69837   1.77830   1.80260   1.81133
 Alpha virt. eigenvalues --    1.90745   1.91347   2.05000   2.11000   2.13787
 Alpha virt. eigenvalues --    2.14284   2.17425   2.18389   2.20784   2.32530
 Alpha virt. eigenvalues --    2.33545   2.35603   2.43017   2.45985   2.49673
 Alpha virt. eigenvalues --    2.54800   2.56747   2.62627   2.67757   2.75057
 Alpha virt. eigenvalues --    2.75393   2.76076   2.78017   2.83536   2.85874
 Alpha virt. eigenvalues --    2.86305   2.89692   3.01179   3.23803   3.29399
 Alpha virt. eigenvalues --    3.39965   3.94540   4.19206   4.52702   4.66026
 Alpha virt. eigenvalues --    4.71115   4.75208   4.96417
  Beta  occ. eigenvalues --  -20.62811 -20.61893 -11.23666 -11.23498 -11.22712
  Beta  occ. eigenvalues --  -11.22666 -11.22582  -1.47695  -1.12562  -1.09818
  Beta  occ. eigenvalues --   -0.99701  -0.95105  -0.86216  -0.72233  -0.71101
  Beta  occ. eigenvalues --   -0.64573  -0.63281  -0.61085  -0.59598  -0.58710
  Beta  occ. eigenvalues --   -0.55064  -0.54362  -0.53313  -0.51292  -0.48331
  Beta  occ. eigenvalues --   -0.46237  -0.45572  -0.35323
  Beta virt. eigenvalues --    0.07394   0.20440   0.21900   0.24417   0.26686
  Beta virt. eigenvalues --    0.26862   0.29600   0.31914   0.32862   0.33649
  Beta virt. eigenvalues --    0.35568   0.36481   0.38794   0.39960   0.43243
  Beta virt. eigenvalues --    0.49222   0.50877   0.59784   0.67917   0.70969
  Beta virt. eigenvalues --    0.74104   0.76525   0.78740   0.79672   0.84726
  Beta virt. eigenvalues --    0.86792   0.91557   0.95290   0.97922   0.99562
  Beta virt. eigenvalues --    0.99657   1.03930   1.05826   1.07903   1.08439
  Beta virt. eigenvalues --    1.12618   1.13619   1.13868   1.17022   1.17627
  Beta virt. eigenvalues --    1.19688   1.20545   1.21740   1.22596   1.24231
  Beta virt. eigenvalues --    1.25564   1.28477   1.31596   1.32542   1.35582
  Beta virt. eigenvalues --    1.41602   1.46199   1.55032   1.57908   1.62240
  Beta virt. eigenvalues --    1.68392   1.69990   1.72223   1.78050   1.80581
  Beta virt. eigenvalues --    1.81561   1.92974   1.93652   2.06917   2.11759
  Beta virt. eigenvalues --    2.14601   2.15296   2.19404   2.20213   2.21679
  Beta virt. eigenvalues --    2.33731   2.35240   2.36700   2.43208   2.46594
  Beta virt. eigenvalues --    2.50789   2.55515   2.56807   2.62547   2.68145
  Beta virt. eigenvalues --    2.75970   2.76141   2.76503   2.80758   2.84316
  Beta virt. eigenvalues --    2.86581   2.87043   2.91425   3.01865   3.24085
  Beta virt. eigenvalues --    3.30443   3.40146   3.95274   4.20956   4.53196
  Beta virt. eigenvalues --    4.66137   4.70961   4.76129   4.96954
          Condensed to atoms (all electrons):
              1          2          3          4          5          6
     1  O    8.299568   0.059811  -0.003074   0.000389  -0.060118   0.000002
     2  O    0.059811   8.141498   0.005209  -0.000673  -0.003044  -0.000008
     3  C   -0.003074   0.005209   5.018782   0.607699   0.357645  -0.043968
     4  C    0.000389  -0.000673   0.607699   4.977965  -0.050212   0.344594
     5  C   -0.060118  -0.003044   0.357645  -0.050212   5.304299  -0.007327
     6  C    0.000002  -0.000008  -0.043968   0.344594  -0.007327   5.107320
     7  C   -0.000002  -0.000004  -0.043710   0.346236   0.003343  -0.066682
     8  H   -0.027918   0.255242   0.002537   0.000915  -0.000637  -0.000014
     9  H   -0.000050   0.000713   0.396376  -0.040102  -0.038550   0.003447
    10  H    0.033298  -0.025088  -0.037697  -0.003076   0.240925   0.000286
    11  H   -0.000353   0.000469  -0.032972   0.002263   0.386061   0.000132
    12  H    0.000159   0.000306  -0.037175  -0.000018   0.383933  -0.000528
    13  H    0.000000   0.000000   0.000003  -0.041440   0.000197   0.389909
    14  H    0.000021  -0.000003  -0.002950  -0.035446  -0.000719   0.395125
    15  H   -0.000004   0.000004   0.000739  -0.041644   0.000185   0.391110
    16  H    0.000000   0.000000  -0.000554  -0.042298  -0.000096  -0.000796
    17  H    0.000000   0.000002   0.000414  -0.042353  -0.000084  -0.001498
    18  H    0.000000  -0.000004  -0.000784  -0.040795   0.000142   0.003665
              7          8          9         10         11         12
     1  O   -0.000002  -0.027918  -0.000050   0.033298  -0.000353   0.000159
     2  O   -0.000004   0.255242   0.000713  -0.025088   0.000469   0.000306
     3  C   -0.043710   0.002537   0.396376  -0.037697  -0.032972  -0.037175
     4  C    0.346236   0.000915  -0.040102  -0.003076   0.002263  -0.000018
     5  C    0.003343  -0.000637  -0.038550   0.240925   0.386061   0.383933
     6  C   -0.066682  -0.000014   0.003447   0.000286   0.000132  -0.000528
     7  C    5.102682   0.000000  -0.005174  -0.000043  -0.000076   0.000028
     8  H    0.000000   0.314653   0.000007  -0.001851   0.000017   0.000025
     9  H   -0.005174   0.000007   0.489437   0.000253  -0.002937   0.002712
    10  H   -0.000043  -0.001851   0.000253   0.514330  -0.022816  -0.020304
    11  H   -0.000076   0.000017  -0.002937  -0.022816   0.488174  -0.022792
    12  H    0.000028   0.000025   0.002712  -0.020304  -0.022792   0.499154
    13  H   -0.001573   0.000001  -0.000109  -0.000036   0.000008   0.000067
    14  H    0.003635   0.000000   0.000038  -0.000043   0.000053   0.000531
    15  H   -0.002201  -0.000023  -0.000101   0.000096  -0.000007  -0.000088
    16  H    0.389970   0.000001   0.000116  -0.000004   0.000005   0.000007
    17  H    0.388273  -0.000029   0.000140   0.000018  -0.000001  -0.000004
    18  H    0.395141   0.000002   0.003032  -0.000002  -0.000008   0.000005
             13         14         15         16         17         18
     1  O    0.000000   0.000021  -0.000004   0.000000   0.000000   0.000000
     2  O    0.000000  -0.000003   0.000004   0.000000   0.000002  -0.000004
     3  C    0.000003  -0.002950   0.000739  -0.000554   0.000414  -0.000784
     4  C   -0.041440  -0.035446  -0.041644  -0.042298  -0.042353  -0.040795
     5  C    0.000197  -0.000719   0.000185  -0.000096  -0.000084   0.000142
     6  C    0.389909   0.395125   0.391110  -0.000796  -0.001498   0.003665
     7  C   -0.001573   0.003635  -0.002201   0.389970   0.388273   0.395141
     8  H    0.000001   0.000000  -0.000023   0.000001  -0.000029   0.000002
     9  H   -0.000109   0.000038  -0.000101   0.000116   0.000140   0.003032
    10  H   -0.000036  -0.000043   0.000096  -0.000004   0.000018  -0.000002
    11  H    0.000008   0.000053  -0.000007   0.000005  -0.000001  -0.000008
    12  H    0.000067   0.000531  -0.000088   0.000007  -0.000004   0.000005
    13  H    0.534591  -0.024824  -0.033135   0.002588  -0.000377  -0.000057
    14  H   -0.024824   0.512127  -0.025948  -0.000040  -0.000065  -0.000092
    15  H   -0.033135  -0.025948   0.538117  -0.000402   0.002694  -0.000036
    16  H    0.002588  -0.000040  -0.000402   0.539181  -0.034756  -0.024256
    17  H   -0.000377  -0.000065   0.002694  -0.034756   0.546816  -0.025007
    18  H   -0.000057  -0.000092  -0.000036  -0.024256  -0.025007   0.512730
 Mulliken atomic charges:
              1
     1  O   -0.301730
     2  O   -0.434430
     3  C   -0.186520
     4  C    0.057995
     5  C   -0.515944
     6  C   -0.514769
     7  C   -0.509842
     8  H    0.457069
     9  H    0.190750
    10  H    0.321753
    11  H    0.204781
    12  H    0.193983
    13  H    0.174184
    14  H    0.178601
    15  H    0.170644
    16  H    0.171334
    17  H    0.165816
    18  H    0.176324
 Sum of Mulliken atomic charges =   0.00000
 Mulliken charges with hydrogens summed into heavy atoms:
              1
     1  O    0.020023
     2  O    0.022639
     3  C    0.004231
     4  C    0.057995
     5  C   -0.117180
     6  C    0.008660
     7  C    0.003632
 Sum of Mulliken charges with hydrogens summed into heavy atoms =   0.00000
          Atomic-Atomic Spin Densities.
              1          2          3          4          5          6
     1  O    0.797688  -0.055362   0.007252   0.000685  -0.070279  -0.000020
     2  O   -0.055362   0.033262  -0.002889  -0.000502   0.009138   0.000008
     3  C    0.007252  -0.002889  -0.718092   0.028505  -0.035360   0.000162
     4  C    0.000685  -0.000502   0.028505   0.829210  -0.012632  -0.027429
     5  C   -0.070279   0.009138  -0.035360  -0.012632   0.763679   0.000327
     6  C   -0.000020   0.000008   0.000162  -0.027429   0.000327  -0.085743
     7  C    0.000002  -0.000003  -0.000181  -0.024197   0.000031   0.002200
     8  H   -0.000071  -0.000508  -0.001096   0.000412  -0.000277  -0.000014
     9  H   -0.000102   0.000085   0.007437  -0.002050  -0.001632   0.000042
    10  H   -0.073157   0.018100   0.019401  -0.000029   0.065414  -0.000074
    11  H    0.003137  -0.000567   0.004614  -0.000185  -0.022735  -0.000017
    12  H    0.001800  -0.000157   0.003611  -0.000676  -0.020203   0.000340
    13  H    0.000001   0.000000  -0.000015  -0.012428   0.000108   0.007123
    14  H    0.000001   0.000001   0.000818  -0.002130  -0.000424   0.003448
    15  H   -0.000009   0.000003   0.000059  -0.011591   0.000126   0.007565
    16  H    0.000000   0.000000  -0.000131  -0.012681   0.000023   0.000443
    17  H   -0.000001   0.000005   0.000211  -0.013045   0.000019   0.000609
    18  H    0.000000   0.000000   0.000945  -0.002192  -0.000003  -0.000061
              7          8          9         10         11         12
     1  O    0.000002  -0.000071  -0.000102  -0.073157   0.003137   0.001800
     2  O   -0.000003  -0.000508   0.000085   0.018100  -0.000567  -0.000157
     3  C   -0.000181  -0.001096   0.007437   0.019401   0.004614   0.003611
     4  C   -0.024197   0.000412  -0.002050  -0.000029  -0.000185  -0.000676
     5  C    0.000031  -0.000277  -0.001632   0.065414  -0.022735  -0.020203
     6  C    0.002200  -0.000014   0.000042  -0.000074  -0.000017   0.000340
     7  C   -0.091293  -0.000012   0.000198   0.000017   0.000008   0.000008
     8  H   -0.000012  -0.002436  -0.000024   0.001228  -0.000009  -0.000009
     9  H    0.000198  -0.000024   0.040918  -0.000035  -0.000187  -0.000047
    10  H    0.000017   0.001228  -0.000035  -0.267534   0.009565   0.008205
    11  H    0.000008  -0.000009  -0.000187   0.009565  -0.039328   0.002735
    12  H    0.000008  -0.000009  -0.000047   0.008205   0.002735  -0.034782
    13  H    0.000576   0.000000  -0.000010   0.000004   0.000004   0.000045
    14  H   -0.000080   0.000000   0.000004   0.000033   0.000007   0.000029
    15  H    0.000395  -0.000010   0.000003  -0.000011  -0.000002  -0.000039
    16  H    0.007725   0.000000  -0.000034   0.000001   0.000001   0.000002
    17  H    0.006790  -0.000011   0.000045  -0.000004  -0.000001  -0.000002
    18  H    0.003487   0.000000  -0.000067   0.000000   0.000001   0.000000
             13         14         15         16         17         18
     1  O    0.000001   0.000001  -0.000009   0.000000  -0.000001   0.000000
     2  O    0.000000   0.000001   0.000003   0.000000   0.000005   0.000000
     3  C   -0.000015   0.000818   0.000059  -0.000131   0.000211   0.000945
     4  C   -0.012428  -0.002130  -0.011591  -0.012681  -0.013045  -0.002192
     5  C    0.000108  -0.000424   0.000126   0.000023   0.000019  -0.000003
     6  C    0.007123   0.003448   0.007565   0.000443   0.000609  -0.000061
     7  C    0.000576  -0.000080   0.000395   0.007725   0.006790   0.003487
     8  H    0.000000   0.000000  -0.000010   0.000000  -0.000011   0.000000
     9  H   -0.000010   0.000004   0.000003  -0.000034   0.000045  -0.000067
    10  H    0.000004   0.000033  -0.000011   0.000001  -0.000004   0.000000
    11  H    0.000004   0.000007  -0.000002   0.000001  -0.000001   0.000001
    12  H    0.000045   0.000029  -0.000039   0.000002  -0.000002   0.000000
[...]
    15  H   -0.002219  -0.000022  -0.000100   0.000096  -0.000007  -0.000087
    16  H    0.390061   0.000001   0.000110  -0.000004   0.000005   0.000006
    17  H    0.388277  -0.000027   0.000145   0.000019  -0.000001  -0.000004
    18  H    0.395171   0.000002   0.003027  -0.000002  -0.000008   0.000005
             13         14         15         16         17         18
     1  O    0.000000   0.000025  -0.000004   0.000000   0.000000   0.000000
     2  O    0.000000  -0.000003   0.000004   0.000000   0.000002  -0.000004
     3  C    0.000044  -0.002965   0.000735  -0.000538   0.000445  -0.000762
     4  C   -0.041425  -0.035490  -0.041586  -0.042211  -0.042347  -0.040872
     5  C    0.000196  -0.000711   0.000181  -0.000096  -0.000085   0.000145
     6  C    0.389834   0.395114   0.391241  -0.000830  -0.001478   0.003658
     7  C   -0.001571   0.003630  -0.002219   0.390061   0.388277   0.395171
     8  H    0.000001   0.000000  -0.000022   0.000001  -0.000027   0.000002
     9  H   -0.000109   0.000037  -0.000100   0.000110   0.000145   0.003027
    10  H   -0.000034  -0.000057   0.000096  -0.000004   0.000019  -0.000002
    11  H    0.000008   0.000053  -0.000007   0.000005  -0.000001  -0.000008
    12  H    0.000057   0.000583  -0.000087   0.000006  -0.000004   0.000005
    13  H    0.534263  -0.024825  -0.033044   0.002569  -0.000375  -0.000057
    14  H   -0.024825   0.511795  -0.025846  -0.000040  -0.000065  -0.000092
    15  H   -0.033044  -0.025846   0.536957  -0.000396   0.002686  -0.000035
    16  H    0.002569  -0.000040  -0.000396   0.538423  -0.034629  -0.024235
    17  H   -0.000375  -0.000065   0.002686  -0.034629   0.545917  -0.024940
    18  H   -0.000057  -0.000092  -0.000035  -0.024235  -0.024940   0.512343
 Mulliken atomic charges:
              1
     1  O   -0.317173
     2  O   -0.439955
     3  C   -0.185713
     4  C    0.059165
     5  C   -0.516449
     6  C   -0.515027
     7  C   -0.510181
     8  H    0.455936
     9  H    0.192247
    10  H    0.332996
    11  H    0.208191
    12  H    0.196271
    13  H    0.174468
    14  H    0.178857
    15  H    0.171446
    16  H    0.171803
    17  H    0.166461
    18  H    0.176655
 Sum of Mulliken atomic charges =   0.00000
 Mulliken charges with hydrogens summed into heavy atoms:
              1
     1  O    0.015823
     2  O    0.015981
     3  C    0.006535
     4  C    0.059165
     5  C   -0.111987
     6  C    0.009745
     7  C    0.004739
 Sum of Mulliken charges with hydrogens summed into heavy atoms =   0.00000
          Atomic-Atomic Spin Densities.
              1          2          3          4          5          6
     1  O    0.775293  -0.052324   0.007730   0.000715  -0.070694  -0.000021
     2  O   -0.052324   0.025341  -0.003054  -0.000517   0.008965   0.000008
     3  C    0.007730  -0.003054  -0.720171   0.029425  -0.039039   0.000106
     4  C    0.000715  -0.000517   0.029425   0.842033  -0.013217  -0.028037
     5  C   -0.070694   0.008965  -0.039039  -0.013217   0.781300   0.000339
     6  C   -0.000021   0.000008   0.000106  -0.028037   0.000339  -0.086916
     7  C    0.000002  -0.000003  -0.000323  -0.024650   0.000026   0.002260
     8  H   -0.000057  -0.000439  -0.001052   0.000418  -0.000314  -0.000014
     9  H   -0.000106   0.000098   0.007528  -0.002160  -0.001529   0.000040
    10  H   -0.077592   0.019682   0.019782  -0.000123   0.070747  -0.000073
    11  H    0.003282  -0.000592   0.004774  -0.000154  -0.023945  -0.000017
    12  H    0.001744  -0.000147   0.003545  -0.000579  -0.019753   0.000341
    13  H    0.000001   0.000000  -0.000029  -0.012585   0.000117   0.007260
    14  H    0.000001   0.000001   0.000829  -0.002153  -0.000430   0.003493
    15  H   -0.000009   0.000003   0.000071  -0.011735   0.000130   0.007724
    16  H    0.000000   0.000000  -0.000164  -0.012851   0.000025   0.000450
    17  H   -0.000001   0.000005   0.000238  -0.013244   0.000021   0.000621
    18  H    0.000000   0.000000   0.000951  -0.002218  -0.000003  -0.000062
              7          8          9         10         11         12
     1  O    0.000002  -0.000057  -0.000106  -0.077592   0.003282   0.001744
     2  O   -0.000003  -0.000439   0.000098   0.019682  -0.000592  -0.000147
     3  C   -0.000323  -0.001052   0.007528   0.019782   0.004774   0.003545
     4  C   -0.024650   0.000418  -0.002160  -0.000123  -0.000154  -0.000579
     5  C    0.000026  -0.000314  -0.001529   0.070747  -0.023945  -0.019753
     6  C    0.002260  -0.000014   0.000040  -0.000073  -0.000017   0.000341
     7  C   -0.092681  -0.000012   0.000206   0.000020   0.000008   0.000007
     8  H   -0.000012  -0.002061  -0.000022   0.001168  -0.000008  -0.000008
     9  H    0.000206  -0.000022   0.041017  -0.000095  -0.000192  -0.000046
    10  H    0.000020   0.001168  -0.000095  -0.263895   0.009781   0.007458
    11  H    0.000008  -0.000008  -0.000192   0.009781  -0.039529   0.002769
    12  H    0.000007  -0.000008  -0.000046   0.007458   0.002769  -0.036150
    13  H    0.000598   0.000000  -0.000011   0.000003   0.000004   0.000041
    14  H   -0.000081   0.000000   0.000004   0.000031   0.000008   0.000044
    15  H    0.000388  -0.000010   0.000003  -0.000010  -0.000002  -0.000037
    16  H    0.007914   0.000000  -0.000036   0.000001   0.000001   0.000002
    17  H    0.006891  -0.000011   0.000047  -0.000004  -0.000001  -0.000002
    18  H    0.003548   0.000000  -0.000070   0.000000   0.000001   0.000000
             13         14         15         16         17         18
     1  O    0.000001   0.000001  -0.000009   0.000000  -0.000001   0.000000
     2  O    0.000000   0.000001   0.000003   0.000000   0.000005   0.000000
     3  C   -0.000029   0.000829   0.000071  -0.000164   0.000238   0.000951
     4  C   -0.012585  -0.002153  -0.011735  -0.012851  -0.013244  -0.002218
     5  C    0.000117  -0.000430   0.000130   0.000025   0.000021  -0.000003
     6  C    0.007260   0.003493   0.007724   0.000450   0.000621  -0.000062
     7  C    0.000598  -0.000081   0.000388   0.007914   0.006891   0.003548
     8  H    0.000000   0.000000  -0.000010   0.000000  -0.000011   0.000000
     9  H   -0.000011   0.000004   0.000003  -0.000036   0.000047  -0.000070
    10  H    0.000003   0.000031  -0.000010   0.000001  -0.000004   0.000000
    11  H    0.000004   0.000008  -0.000002   0.000001  -0.000001   0.000001
    12  H    0.000041   0.000044  -0.000037   0.000002  -0.000002   0.000000
    13  H    0.036584  -0.000849  -0.007061   0.001611  -0.000628  -0.000002
    14  H   -0.000849   0.003573  -0.000531  -0.000003   0.000002   0.000000
    15  H   -0.007061  -0.000531   0.032404  -0.000644   0.001640  -0.000003
    16  H    0.001611  -0.000003  -0.000644   0.037336  -0.008164  -0.000647
    17  H   -0.000628   0.000002   0.001640  -0.008164   0.039715  -0.000768
    18  H   -0.000002   0.000000  -0.000003  -0.000647  -0.000768   0.003338
 Mulliken atomic spin densities:
              1
     1  O    0.587962
     2  O   -0.002972
     3  C   -0.688852
     4  C    0.748369
     5  C    0.692746
     6  C   -0.092496
     7  C   -0.095882
     8  H   -0.002421
     9  H    0.044675
    10  H   -0.213118
    11  H   -0.043810
    12  H   -0.040770
    13  H    0.025056
    14  H    0.003940
    15  H    0.022321
    16  H    0.024830
    17  H    0.026357
    18  H    0.004064
 Sum of Mulliken atomic spin densities =   1.00000
 Electronic spatial extent (au):  <R**2>=           1135.3024
 Charge=              0.0000 electrons
 Dipole moment (field-independent basis, Debye):
    X=              3.1265    Y=             -0.0006    Z=             -0.4161  Tot=              3.1541
 Quadrupole moment (field-independent basis, Debye-Ang):
   XX=            -53.3324   YY=            -42.1098   ZZ=            -42.6338
   XY=              1.2297   XZ=             -1.2296   YZ=             -1.9603
 Traceless Quadrupole moment (field-independent basis, Debye-Ang):
   XX=             -7.3070   YY=              3.9155   ZZ=              3.3915
   XY=              1.2297   XZ=             -1.2296   YZ=             -1.9603
 Octapole moment (field-independent basis, Debye-Ang**2):
  XXX=             15.0677  YYY=              3.9222  ZZZ=             -4.7406  XYY=             -7.0426
  XXY=             -2.2708  XXZ=             -0.0533  XZZ=            -10.5420  YZZ=              5.7903
  YYZ=             -3.7925  XYZ=              5.2310
 Hexadecapole moment (field-independent basis, Debye-Ang**3):
 XXXX=          -1026.7236 YYYY=           -284.7506 ZZZZ=           -189.9810 XXXY=             -1.7474
 XXXZ=              1.0173 YYYX=             -8.3184 YYYZ=             -4.4503 ZZZX=              4.0433
 ZZZY=             -5.5497 XXYY=           -213.8578 XXZZ=           -189.4299 YYZZ=            -77.1339
 XXYZ=             -7.9188 YYXZ=              7.1469 ZZXY=             -3.7706
 N-N= 3.041052189776D+02 E-N=-2.117822074187D+03  KE= 5.157929389912D+02
                          Isotropic Fermi Contact Couplings
        Atom                 a.u.       MegaHertz       Gauss      10(-4) cm-1
     1  O(17)              0.11736     -71.14158     -25.38508     -23.73028
     2  O(17)              0.02151     -13.04192      -4.65368      -4.35032
     3  C(13)             -0.12353    -138.87099     -49.55262     -46.32238
     4  C(13)              0.13312     149.65373      53.40017      49.91911
     5  C(13)              0.16777     188.60780      67.29995      62.91279
     6  C(13)             -0.03053     -34.32131     -12.24670     -11.44836
     7  C(13)             -0.03187     -35.82429     -12.78300     -11.94970
     8  H(1)              -0.00114      -5.07945      -1.81247      -1.69432
     9  H(1)               0.01386      61.95302      22.10638      20.66530
    10  H(1)              -0.08574    -383.24009    -136.74959    -127.83513
    11  H(1)              -0.01528     -68.28015     -24.36405     -22.77581
    12  H(1)              -0.01311     -58.59941     -20.90973     -19.54666
    13  H(1)               0.01119      50.01428      17.84634      16.68297
    14  H(1)               0.00134       5.99639       2.13966       2.00018
    15  H(1)               0.01004      44.85976      16.00708      14.96361
    16  H(1)               0.01110      49.60221      17.69930      16.54552
    17  H(1)               0.01166      52.13208      18.60202      17.38939
    18  H(1)               0.00138       6.17126       2.20206       2.05851
 --------------------------------------------------------
       Center         ----  Spin Dipole Couplings  ----
                      3XX-RR        3YY-RR        3ZZ-RR
 --------------------------------------------------------
     1   Atom        0.878861     -0.830823     -0.048037
     2   Atom        0.162371     -0.163567      0.001196
     3   Atom        0.041890      0.064955     -0.106846
     4   Atom       -0.042306     -0.078652      0.120959
     5   Atom        0.153115     -0.222974      0.069859
     6   Atom        0.003369      0.000426     -0.003795
     7   Atom       -0.003298      0.000095      0.003202
     8   Atom       -0.000585      0.009571     -0.008986
     9   Atom        0.024152     -0.015676     -0.008476
    10   Atom        0.076933     -0.070926     -0.006007
    11   Atom       -0.000666     -0.036914      0.037581
    12   Atom       -0.016240      0.026860     -0.010620
    13   Atom       -0.001024      0.001855     -0.000831
    14   Atom       -0.001168      0.001558     -0.000390
    15   Atom       -0.000679     -0.002699      0.003379
    16   Atom        0.002984      0.000179     -0.003163
    17   Atom        0.001339      0.004478     -0.005817
    18   Atom       -0.002695      0.004503     -0.001808
 --------------------------------------------------------
                        XY            XZ            YZ
 --------------------------------------------------------
     1   Atom       -0.804255      1.573554     -0.569740
     2   Atom       -0.195732      0.132089     -0.187049
     3   Atom        0.195007     -0.275109      0.225820
     4   Atom       -0.232748      0.342131     -0.302481
     5   Atom       -0.197301      0.404348     -0.177583
     6   Atom        0.003925      0.003293     -0.004113
     7   Atom       -0.005852      0.002010      0.002788
     8   Atom        0.010507     -0.005720     -0.011231
     9   Atom        0.018074     -0.008079     -0.017720
    10   Atom       -0.112070      0.159488     -0.083778
    11   Atom       -0.010223     -0.021993     -0.009594
    12   Atom       -0.026119      0.005035      0.020989
    13   Atom       -0.003362     -0.004257      0.004371
    14   Atom       -0.002018     -0.001063      0.004231
    15   Atom       -0.001157     -0.003508      0.005608
    16   Atom        0.007081      0.001139      0.001144
    17   Atom        0.005770     -0.001165     -0.000948
    18   Atom        0.002187      0.003407      0.003144
 --------------------------------------------------------


 ---------------------------------------------------------------------------------
              Anisotropic Spin Dipole Couplings in Principal Axis System
 ---------------------------------------------------------------------------------

       Atom             a.u.   MegaHertz   Gauss  10(-4) cm-1        Axes

              Baa    -1.2311    89.085    31.788    29.716 -0.6371 -0.2351  0.7341
     1 O(17)  Bbb    -1.1289    81.686    29.148    27.248  0.0824  0.9261  0.3682
              Bcc     2.3600  -170.771   -60.936   -56.963  0.7664 -0.2951  0.5706
 
              Baa    -0.3089    22.349     7.975     7.455  0.2441  0.8728  0.4226
     2 O(17)  Bbb    -0.0595     4.304     1.536     1.436 -0.6222 -0.1933  0.7586
              Bcc     0.3683   -26.653    -9.511    -8.891  0.7438 -0.4481  0.4959
 
              Baa    -0.4803   -64.450   -22.997   -21.498  0.5425 -0.4797  0.6897
     3 C(13)  Bbb     0.2203    29.566    10.550     9.862 -0.0764  0.7894  0.6091
              Bcc     0.2600    34.885    12.448    11.636  0.8366  0.3831 -0.3916
 
              Baa    -0.3132   -42.031   -14.998   -14.020  0.7141 -0.1679 -0.6796
     4 C(13)  Bbb    -0.2911   -39.063   -13.938   -13.030  0.4468  0.8567  0.2578
              Bcc     0.6043    81.094    28.936    27.050  0.5389 -0.4878  0.6867
 
              Baa    -0.3083   -41.366   -14.760   -13.798  0.2430  0.9518  0.1871
     5 C(13)  Bbb    -0.2950   -39.585   -14.125   -13.204 -0.6642  0.0227  0.7472
              Bcc     0.6033    80.951    28.885    27.002  0.7069 -0.3059  0.6377
 
              Baa    -0.0084    -1.122    -0.400    -0.374 -0.3886  0.5273  0.7556
     6 C(13)  Bbb     0.0023     0.302     0.108     0.101 -0.3792  0.6558 -0.6527
              Bcc     0.0061     0.820     0.293     0.273  0.8397  0.5402  0.0549
 
              Baa    -0.0086    -1.156    -0.412    -0.385  0.7572  0.5951 -0.2693
     7 C(13)  Bbb     0.0033     0.443     0.158     0.148  0.5584 -0.3759  0.7395
              Bcc     0.0053     0.712     0.254     0.238 -0.3388  0.7103  0.6170
 
              Baa    -0.0143    -7.646    -2.728    -2.550  0.0785  0.3955  0.9151
     8 H(1)   Bbb    -0.0070    -3.753    -1.339    -1.252  0.8748 -0.4676  0.1270
              Bcc     0.0214    11.399     4.067     3.802  0.4782  0.7905 -0.3827
 
              Baa    -0.0318   -16.974    -6.057    -5.662 -0.1825  0.8125  0.5537
     9 H(1)   Bbb    -0.0040    -2.149    -0.767    -0.717  0.4865 -0.4148  0.7689
              Bcc     0.0358    19.123     6.823     6.379  0.8544  0.4097 -0.3196
 
              Baa    -0.1319   -70.368   -25.109   -23.472  0.6254  0.7124 -0.3183
    10 H(1)   Bbb    -0.1276   -68.086   -24.295   -22.711 -0.2759  0.5835  0.7638
              Bcc     0.2595   138.454    49.404    46.183  0.7299 -0.3899  0.5615
 
              Baa    -0.0427   -22.759    -8.121    -7.591  0.3297  0.9225  0.2007
    11 H(1)   Bbb    -0.0052    -2.771    -0.989    -0.924  0.8539 -0.3821  0.3534
              Bcc     0.0478    25.530     9.110     8.516 -0.4026 -0.0549  0.9137
 
              Baa    -0.0367   -19.586    -6.989    -6.533  0.7206  0.4657 -0.5137
    12 H(1)   Bbb    -0.0078    -4.186    -1.493    -1.396  0.5958 -0.0368  0.8023
              Bcc     0.0446    23.772     8.482     7.929 -0.3547  0.8842  0.3040
 
              Baa    -0.0053    -2.828    -1.009    -0.943  0.6231 -0.1732  0.7628
    13 H(1)   Bbb    -0.0028    -1.511    -0.539    -0.504  0.5996  0.7320 -0.3236
              Bcc     0.0081     4.339     1.548     1.447 -0.5023  0.6590  0.5599
 
              Baa    -0.0038    -2.051    -0.732    -0.684 -0.1978 -0.6492  0.7345
    14 H(1)   Bbb    -0.0018    -0.971    -0.346    -0.324  0.9291  0.1147  0.3516
              Bcc     0.0057     3.021     1.078     1.008 -0.3125  0.7519  0.5805
 
              Baa    -0.0062    -3.298    -1.177    -1.100 -0.1752  0.8198 -0.5452
    15 H(1)   Bbb    -0.0020    -1.073    -0.383    -0.358  0.9090  0.3474  0.2303
              Bcc     0.0082     4.371     1.560     1.458 -0.3782  0.4552  0.8061
 
              Baa    -0.0056    -3.014    -1.075    -1.005 -0.6271  0.7758 -0.0698
    16 H(1)   Bbb    -0.0034    -1.795    -0.640    -0.599 -0.1455 -0.0286  0.9889
              Bcc     0.0090     4.808     1.716     1.604  0.7652  0.6304  0.1308
 
              Baa    -0.0060    -3.202    -1.143    -1.068  0.1525  0.0054  0.9883
    17 H(1)   Bbb    -0.0030    -1.617    -0.577    -0.539  0.7803 -0.6144 -0.1170
              Bcc     0.0090     4.819     1.720     1.607  0.6066  0.7890 -0.0979
 
              Baa    -0.0057    -3.047    -1.087    -1.016  0.7307  0.0531 -0.6807
    18 H(1)   Bbb    -0.0013    -0.691    -0.247    -0.231  0.5923 -0.5452  0.5933
              Bcc     0.0070     3.738     1.334     1.247  0.3396  0.8367  0.4298
 

 ---------------------------------------------------------------------------------

 No NMR shielding tensors so no spin-rotation constants.
 Leave Link  601 at Mon Apr 30 12:21:03 2018, MaxMem=  671088640 cpu:      15.0
 (Enter /shared/apps/gaussian/G09_LINUX_LINDA/g09/l9999.exe)
 1\1\GINC-COMPUTE-3-045\FTS\UHF\6-31G(d)\C5H11O2(2)\ROOT\30-Apr-2018\0\
 \#p hf/6-31g* opt=(ts,calcfc,noeigentest,ModRedun)\\Gaussian input pre
 pared by ASE\\0,2\O,-3.0850655123,-0.1032645339,0.0210716511\O,-2.7270
 77018,-1.1693086689,-0.7542779562\C,-0.0372898253,0.387439618,-0.80451
 10017\C,0.9082653055,-0.0634646899,0.0614440493\C,-1.0870743009,1.3586
 224648,-0.5370963472\C,1.0430779438,0.3917947791,1.4925556828\C,1.9332
 749419,-1.0782658649,-0.3799010497\H,-2.235272751,-1.7250880269,-0.160
 7534634\H,-0.0412461305,-0.0352161237,-1.7948899987\H,-2.1482687853,0.
 6769984245,-0.171387281\H,-1.4872784454,1.8473120915,-1.4112975761\H,-
 0.9361420095,2.044691477,0.2804455418\H,2.005904647,0.8727949827,1.650
 152304\H,0.269799062,1.083664447,1.7961414753\H,1.0054862761,-0.461591
 0114,2.1657108413\H,2.9405483258,-0.6812700636,-0.274603632\H,1.884187
 5295,-1.9746010597,0.235024901\H,1.7942707467,-1.3710482418,-1.4138281
 406\\Version=EM64L-G09RevB.01\State=2-A\HF=-345.2583938\S2=0.997337\S2
 -1=0.\S2A=0.775714\RMSD=9.003e-09\RMSF=5.227e-04\Dipole=1.1867514,-0.0
 776813,0.3541626\Quadrupole=-5.3757421,4.0123413,1.3634009,-1.0570404,
 -0.7774246,-0.9048074\PG=C01 [X(C5H11O2)]\\@


      TO SUSPECT YOUR OWN MORTALITY IS TO KNOW THE BEGINNING OF TERROR.
      TO LEARN IRREFUTABLY THAT YOU ARE MORTAL IS TO KNOW THE END
      OF TERROR.

                                                  -- JESSICA
                                                     CHILDREN OF DUNE
                                                     BY FRANK HERBERT
 Job cpu time:  0 days  0 hours 27 minutes 58.3 seconds.
 File lengths (MBytes):  RWF=    136 Int=      0 D2E=      0 Chk=      3 Scr=      1
 Normal termination of Gaussian 09 at Mon Apr 30 12:21:03 2018.
