 Entering Gaussian System, Link 0=g09
 Initial command:
 /shared/apps/gaussian/G09_LINUX_LINDA/g09/l1.exe /home/harms.n/Code/AutoTST/ipython_notebooks/Gau-7810.inp -scrdir=/home/harms.n/Code/AutoTST/ipython_notebooks/
 Entering Link 1 = /shared/apps/gaussian/G09_LINUX_LINDA/g09/l1.exe PID=      7811.
  
 Copyright (c) 1988,1990,1992,1993,1995,1998,2003,2009,2010,
            Gaussian, Inc.  All Rights Reserved.
  
 This is part of the Gaussian(R) 09 program.  It is based on
 the Gaussian(R) 03 system (copyright 2003, Gaussian, Inc.),
 the Gaussian(R) 98 system (copyright 1998, Gaussian, Inc.),
 the Gaussian(R) 94 system (copyright 1995, Gaussian, Inc.),
 the Gaussian 92(TM) system (copyright 1992, Gaussian, Inc.),
 the Gaussian 90(TM) system (copyright 1990, Gaussian, Inc.),
 the Gaussian 88(TM) system (copyright 1988, Gaussian, Inc.),
 the Gaussian 86(TM) system (copyright 1986, Carnegie Mellon
 University), and the Gaussian 82(TM) system (copyright 1983,
 Carnegie Mellon University). Gaussian is a federally registered
 trademark of Gaussian, Inc.
  
 This software contains proprietary and confidential information,
 including trade secrets, belonging to Gaussian, Inc.
  
 This software is provided under written license and may be
 used, copied, transmitted, or stored only in accord with that
 written license.
  
 The following legend is applicable only to US Government
 contracts under FAR:
  
                    RESTRICTED RIGHTS LEGEND
  
 Use, reproduction and disclosure by the US Government is
 subject to restrictions as set forth in subparagraphs (a)
 and (c) of the Commercial Computer Software - Restricted
 Rights clause in FAR 52.227-19.
  
 Gaussian, Inc.
 340 Quinnipiac St., Bldg. 40, Wallingford CT 06492
  
  
 ---------------------------------------------------------------
 Warning -- This program may not be used in any manner that
 competes with the business of Gaussian, Inc. or will provide
 assistance to any competitor of Gaussian, Inc.  The licensee
 of this program is prohibited from giving any competitor of
 Gaussian, Inc. access to this program.  By using this program,
 the user acknowledges that Gaussian, Inc. is engaged in the
 business of creating and licensing software in the field of
 computational chemistry and represents and warrants to the
 licensee that it is not a competitor of Gaussian, Inc. and that
 it will not use this program in any manner prohibited above.
 ---------------------------------------------------------------
  

 Cite this work as:
 Gaussian 09, Revision B.01,
 M. J. Frisch, G. W. Trucks, H. B. Schlegel, G. E. Scuseria, 
 M. A. Robb, J. R. Cheeseman, G. Scalmani, V. Barone, B. Mennucci, 
 G. A. Petersson, H. Nakatsuji, M. Caricato, X. Li, H. P. Hratchian, 
 A. F. Izmaylov, J. Bloino, G. Zheng, J. L. Sonnenberg, M. Hada, 
 M. Ehara, K. Toyota, R. Fukuda, J. Hasegawa, M. Ishida, T. Nakajima, 
 Y. Honda, O. Kitao, H. Nakai, T. Vreven, J. A. Montgomery, Jr., 
 J. E. Peralta, F. Ogliaro, M. Bearpark, J. J. Heyd, E. Brothers, 
 K. N. Kudin, V. N. Staroverov, T. Keith, R. Kobayashi, J. Normand, 
 K. Raghavachari, A. Rendell, J. C. Burant, S. S. Iyengar, J. Tomasi, 
 M. Cossi, N. Rega, J. M. Millam, M. Klene, J. E. Knox, J. B. Cross, 
 V. Bakken, C. Adamo, J. Jaramillo, R. Gomperts, R. E. Stratmann, 
 O. Yazyev, A. J. Austin, R. Cammi, C. Pomelli, J. W. Ochterski, 
 R. L. Martin, K. Morokuma, V. G. Zakrzewski, G. A. Voth, 
 P. Salvador, J. J. Dannenberg, S. Dapprich, A. D. Daniels, 
 O. Farkas, J. B. Foresman, J. V. Ortiz, J. Cioslowski, 
 and D. J. Fox, Gaussian, Inc., Wallingford CT, 2010.
 
 ******************************************
 Gaussian 09:  EM64L-G09RevB.01 12-Aug-2010
                30-Apr-2018 
 ******************************************
 %nprocshared=20
 Will use up to   20 processors via shared memory.
 %mem=5GB
 --------------------------
 #p hf/6-31g* irc=(calcall)
 --------------------------
 1/10=4,18=10,38=1,44=3,71=1/1,23;
 2/12=2,17=6,18=5,29=1,40=1/2;
 3/5=1,6=6,7=1,11=9,16=1,25=1,30=1,71=2/1,2,3;
 4//1;
 5/5=2,38=5/2;
 8/6=4,10=90,11=11/1;
 11/6=1,8=1,9=11,15=111,16=1/1,2,10;
 10/6=1/2;
 6/7=2,8=2,9=2,10=2,18=1,28=1/1;
 7/10=1,25=1/1,2,3,16;
 1/10=4,18=10,44=3,71=1/23(3);
 2/29=1/2;
 7/8=1,9=1,25=1,44=-1/16;
 99/5=20/99;
 2/29=1/2;
 3/5=1,6=6,7=1,11=9,16=1,25=1,30=1,71=2/1,2,3;
 4/5=5,16=3/1;
 5/5=2,38=5/2;
 8/6=4,10=90,11=11/1;
 11/6=1,8=1,9=11,15=111,16=1/1,2,10;
 10/6=1/2;
 7/10=1,25=1/1,2,3,16;
 1/10=4,18=10,44=3,71=1/23(-8);
 2/29=1/2;
 6/7=2,8=2,9=2,10=2,18=1,19=2,28=1/1;
 7/8=1,9=1,25=1,44=-1/16;
 99/5=20/99;
 Leave Link    1 at Mon Apr 30 12:28:40 2018, MaxMem=  671088640 cpu:       1.0
 (Enter /shared/apps/gaussian/G09_LINUX_LINDA/g09/l101.exe)
 ------------------------------
 Gaussian input prepared by ASE
 ------------------------------
 Symbolic Z-matrix:
 Charge =  0 Multiplicity = 2
 O                    -3.10421  -0.05801   0.01105 
 O                    -2.78912  -1.22684  -0.62106 
 C                     0.00436   0.41464  -0.84117 
 C                     0.92602  -0.05715   0.04172 
 C                    -1.06955   1.36086  -0.5761 
 C                     1.01428   0.35772   1.48865 
 C                     1.96879  -1.05466  -0.39678 
 H                    -2.34058  -1.73256   0.04648 
 H                     0.03422   0.01951  -1.84267 
 H                    -2.13843   0.66486  -0.25789 
 H                    -1.43681   1.88674  -1.44508 
 H                    -0.96528   2.00865   0.28027 
 H                     1.97075   0.83488   1.69023 
 H                     0.2308    1.04012   1.78757 
 H                     0.95709  -0.51448   2.13584 
 H                     2.97054  -0.65729  -0.24879 
 H                     1.90421  -1.96853   0.19009 
 H                     1.86302  -1.31827  -1.44237 
 
 NAtoms=     18 NQM=     18 NQMF=      0 NMic=      0 NMicF=      0 NTot=     18.
                    Isotopes and Nuclear Properties:
 (Nuclear quadrupole moments (NQMom) in fm**2, nuclear magnetic moments (NMagM)
  in nuclear magnetons)

  Atom         1           2           3           4           5           6           7           8           9          10
 IAtWgt=          16          16          12          12          12          12          12           1           1           1
 AtmWgt=  15.9949146  15.9949146  12.0000000  12.0000000  12.0000000  12.0000000  12.0000000   1.0078250   1.0078250   1.0078250
 NucSpn=           0           0           0           0           0           0           0           1           1           1
 AtZEff=   0.0000000   0.0000000   0.0000000   0.0000000   0.0000000   0.0000000   0.0000000   0.0000000   0.0000000   0.0000000
 NQMom=    0.0000000   0.0000000   0.0000000   0.0000000   0.0000000   0.0000000   0.0000000   0.0000000   0.0000000   0.0000000
 NMagM=    0.0000000   0.0000000   0.0000000   0.0000000   0.0000000   0.0000000   0.0000000   2.7928460   2.7928460   2.7928460

  Atom        11          12          13          14          15          16          17          18
 IAtWgt=           1           1           1           1           1           1           1           1
 AtmWgt=   1.0078250   1.0078250   1.0078250   1.0078250   1.0078250   1.0078250   1.0078250   1.0078250
 NucSpn=           1           1           1           1           1           1           1           1
 AtZEff=   0.0000000   0.0000000   0.0000000   0.0000000   0.0000000   0.0000000   0.0000000   0.0000000
 NQMom=    0.0000000   0.0000000   0.0000000   0.0000000   0.0000000   0.0000000   0.0000000   0.0000000
 NMagM=    2.7928460   2.7928460   2.7928460   2.7928460   2.7928460   2.7928460   2.7928460   2.7928460
 Leave Link  101 at Mon Apr 30 12:28:40 2018, MaxMem=  671088640 cpu:       1.0
 (Enter /shared/apps/gaussian/G09_LINUX_LINDA/g09/l123.exe)
 IRC-IRC-IRC-IRC-IRC-IRC-IRC-IRC-IRC-IRC-IRC-IRC-IRC-IRC-IRC-IRC-IRC-IRC
 ------------------------------------------------------------------------
 INPUT DATA FOR L123
 ------------------------------------------------------------------------
 GENERAL PARAMETERS:
 Follow reaction path in both directions.
 Maximum points per path      =  10
 Step size                    =   0.100 bohr
 Integration scheme           = HPC                                 
    Redo corrector integration= Yes                                 
    Max correction cycles     =  20
 Initial Hessian              = CalcFC
 Hessian evaluation           = Full Hessian always
 ------------------------------------------------------------------------
 IRC-IRC-IRC-IRC-IRC-IRC-IRC-IRC-IRC-IRC-IRC-IRC-IRC-IRC-IRC-IRC-IRC-IRC
 Leave Link  123 at Mon Apr 30 12:28:40 2018, MaxMem=  671088640 cpu:       0.0
 (Enter /shared/apps/gaussian/G09_LINUX_LINDA/g09/l202.exe)
                          Input orientation:                          
 ---------------------------------------------------------------------
 Center     Atomic      Atomic             Coordinates (Angstroms)
 Number     Number       Type             X           Y           Z
 ---------------------------------------------------------------------
      1          8           0       -3.104210   -0.058006    0.011054
      2          8           0       -2.789123   -1.226838   -0.621063
      3          6           0        0.004356    0.414639   -0.841169
      4          6           0        0.926016   -0.057151    0.041716
      5          6           0       -1.069547    1.360859   -0.576103
      6          6           0        1.014281    0.357718    1.488654
      7          6           0        1.968790   -1.054659   -0.396784
      8          1           0       -2.340578   -1.732557    0.046478
      9          1           0        0.034217    0.019510   -1.842672
     10          1           0       -2.138429    0.664863   -0.257888
     11          1           0       -1.436808    1.886744   -1.445076
     12          1           0       -0.965277    2.008650    0.280270
     13          1           0        1.970747    0.834876    1.690233
     14          1           0        0.230804    1.040121    1.787574
     15          1           0        0.957091   -0.514479    2.135841
     16          1           0        2.970542   -0.657295   -0.248787
     17          1           0        1.904206   -1.968528    0.190095
     18          1           0        1.863023   -1.318268   -1.442373
 ---------------------------------------------------------------------
                    Distance matrix (angstroms):
                    1          2          3          4          5
     1  O    0.000000
     2  O    1.365656   0.000000
     3  C    3.257738   3.247525   0.000000
     4  C    4.030342   3.950911   1.360709   0.000000
     5  C    2.549075   3.107271   1.455630   2.524821   0.000000
     6  C    4.395235   4.628996   2.539934   1.507825   3.100299
     7  C    5.186036   4.766307   2.493054   1.508205   3.885662
     8  H    1.840790   0.950029   3.301073   3.671191   3.401815
     9  H    3.645823   3.319181   1.077046   2.086169   2.149816
    10  H    1.235962   2.033183   2.234805   3.162576   1.314602
    11  H    2.946624   3.493156   2.146799   3.401795   1.080069
    12  H    2.986399   3.821936   2.176852   2.810949   1.078833
    13  H    5.419600   5.678831   3.232846   2.145876   3.828358
    14  H    3.935000   4.478905   2.711604   2.176085   2.716755
    15  H    4.606218   4.705538   3.260913   2.143706   3.870244
    16  H    6.109769   5.799717   3.209085   2.150501   4.527958
    17  H    5.363430   4.820314   3.217518   2.152263   4.529358
    18  H    5.326735   4.724974   2.611333   2.161231   4.065478
                    6          7          8          9         10
     6  C    0.000000
     7  C    2.541805   0.000000
     8  H    4.207636   4.384824   0.000000
     9  H    3.488932   2.643294   3.504038   0.000000
    10  H    3.617227   4.454806   2.425104   2.765576   0.000000
    11  H    4.117345   4.620483   4.017570   2.410095   1.842465
    12  H    2.846827   4.295464   3.992837   3.076126   1.863240
    13  H    1.087723   2.815313   5.280262   4.110522   4.550759
    14  H    1.081140   3.490003   4.163071   3.776107   3.152459
    15  H    1.087588   2.780201   4.089470   4.118908   4.086934
    16  H    2.806405   1.087801   5.426912   3.408892   5.277288
    17  H    2.808851   1.088005   4.253764   3.403131   4.845445
    18  H    3.481409   1.083482   4.478681   2.300961   4.620328
                   11         12         13         14         15
    11  H    0.000000
    12  H    1.792769   0.000000
    13  H    4.748475   3.462077   0.000000
    14  H    3.734666   2.154211   1.754709   0.000000
    15  H    4.931489   3.674891   1.745516   1.750875   0.000000
    16  H    5.227617   4.783079   2.643097   3.812369   3.124233
    17  H    5.357171   4.905101   3.180239   3.795285   2.607147
    18  H    4.600108   4.694163   3.802743   4.319572   3.777619
                   16         17         18
    16  H    0.000000
    17  H    1.746145   0.000000
    18  H    1.757308   1.757693   0.000000
 Symmetry turned off by external request.
 Stoichiometry    C5H11O2(2)
 Framework group  C1[X(C5H11O2)]
 Deg. of freedom    48
 Full point group                 C1      NOp   1
 Rotational constants (GHZ):      3.6013118      1.1893028      1.1105216
 Leave Link  202 at Mon Apr 30 12:28:40 2018, MaxMem=  671088640 cpu:       0.8
 (Enter /shared/apps/gaussian/G09_LINUX_LINDA/g09/l301.exe)
 Standard basis: 6-31G(d) (6D, 7F)
 Ernie: Thresh=  0.10000D-02 Tol=  0.10000D-05 Strict=F.
 Integral buffers will be    131072 words long.
 Raffenetti 2 integral format.
 Two-electron integral symmetry is turned off.
   127 basis functions,   240 primitive gaussians,   127 cartesian basis functions
    29 alpha electrons       28 beta electrons
       nuclear repulsion energy       302.6009217589 Hartrees.
 IExCor=    0 DFT=F Ex=HF Corr=None ExCW=0 ScaHFX=  1.000000
 ScaDFX=  1.000000  1.000000  1.000000  1.000000 ScalE2=  1.000000  1.000000
 IRadAn=      0 IRanWt=     -1 IRanGd=            0 ICorTp=0
 NAtoms=   18 NActive=   18 NUniq=   18 SFac= 1.00D+00 NAtFMM=   50 NAOKFM=F Big=F
 Leave Link  301 at Mon Apr 30 12:28:41 2018, MaxMem=  671088640 cpu:       0.9
 (Enter /shared/apps/gaussian/G09_LINUX_LINDA/g09/l302.exe)
 NPDir=0 NMtPBC=     1 NCelOv=     1 NCel=       1 NClECP=     1 NCelD=      1
         NCelK=      1 NCelE2=     1 NClLst=     1 CellRange=     0.0.
 One-electron integrals computed using PRISM.
 NBasis=   127 RedAO= T  NBF=   127
 NBsUse=   127 1.00D-06 NBFU=   127
 Leave Link  302 at Mon Apr 30 12:28:41 2018, MaxMem=  671088640 cpu:       6.8
 (Enter /shared/apps/gaussian/G09_LINUX_LINDA/g09/l303.exe)
 DipDrv:  MaxL=1.
 Leave Link  303 at Mon Apr 30 12:28:42 2018, MaxMem=  671088640 cpu:       1.6
 (Enter /shared/apps/gaussian/G09_LINUX_LINDA/g09/l401.exe)
 Harris functional with IExCor=  205 diagonalized for initial guess.
 ExpMin= 1.61D-01 ExpMax= 5.48D+03 ExpMxC= 8.25D+02 IAcc=1 IRadAn=         1 AccDes= 0.00D+00
 HarFok:  IExCor=  205 AccDes= 0.00D+00 IRadAn=         1 IDoV= 1
 ScaDFX=  1.000000  1.000000  1.000000  1.000000
 FoFCou: FMM=F IPFlag=           0 FMFlag=      100000 FMFlg1=           0
         NFxFlg=           0 DoJE=T BraDBF=F KetDBF=T FulRan=T
         Omega=  0.000000  0.000000  1.000000  0.000000  0.000000 ICntrl=     500 IOpCl=  0
         NMat0=    1 NMatS0=    1 NMatT0=    0 NMatD0=    1 NMtDS0=    0 NMtDT0=    0
         I1Cent=           4 NGrid=           0.
 Symmetry not used in FoFCou.
 Harris En= -345.812710561519    
 Initial guess <Sx>= 0.0000 <Sy>= 0.0000 <Sz>= 0.5000 <S**2>= 0.7500 S= 0.5000
 Leave Link  401 at Mon Apr 30 12:28:43 2018, MaxMem=  671088640 cpu:      18.3
 (Enter /shared/apps/gaussian/G09_LINUX_LINDA/g09/l502.exe)
 UHF open shell SCF:
 Requested convergence on RMS density matrix=1.00D-08 within 128 cycles.
 Requested convergence on MAX density matrix=1.00D-06.
 Requested convergence on             energy=1.00D-06.
 No special actions if energy rises.
 Using DIIS extrapolation, IDIIS=  1040.
 Two-electron integral symmetry not used.
 Keep R1 and R2 ints in memory in canonical form, NReq=67190916.
 IEnd=       69871 IEndB=       69871 NGot=   671088640 MDV=   604979126
 LenX=   604979126 LenY=   604962556
 Symmetry not used in FoFDir.
 MinBra= 0 MaxBra= 2 Meth= 1.
 IRaf=       0 NMat=   1 IRICut=       1 DoRegI=T DoRafI=F ISym2E= 0 JSym2E=0.

 Cycle   1  Pass 1  IDiag  1:
 E= -344.875004313611    
 DIIS: error= 4.45D-02 at cycle   1 NSaved=   1.
 NSaved= 1 IEnMin= 1 EnMin= -344.875004313611     IErMin= 1 ErrMin= 4.45D-02
 ErrMax= 4.45D-02 EMaxC= 1.00D-01 BMatC= 1.99D+00 BMatP= 1.99D+00
 IDIUse=3 WtCom= 5.55D-01 WtEn= 4.45D-01
 Coeff-Com:  0.100D+01
 Coeff-En:   0.100D+01
 Coeff:      0.100D+01
 Gap=     0.577 Goal=   None    Shift=    0.000
 Gap=     0.532 Goal=   None    Shift=    0.000
 GapD=    0.532 DampG=2.000 DampE=0.500 DampFc=1.0000 IDamp=-1.
 RMSDP=5.65D-03 MaxDP=1.12D-01              OVMax= 2.01D-01

 Cycle   2  Pass 1  IDiag  1:
 E= -345.189779534634     Delta-E=       -0.314775221023 Rises=F Damp=F
 DIIS: error= 1.63D-02 at cycle   2 NSaved=   2.
 NSaved= 2 IEnMin= 2 EnMin= -345.189779534634     IErMin= 2 ErrMin= 1.63D-02
 ErrMax= 1.63D-02 EMaxC= 1.00D-01 BMatC= 2.14D-01 BMatP= 1.99D+00
 IDIUse=3 WtCom= 8.37D-01 WtEn= 1.63D-01
 Coeff-Com:  0.172D+00 0.828D+00
 Coeff-En:   0.000D+00 0.100D+01
 Coeff:      0.144D+00 0.856D+00
 Gap=     0.567 Goal=   None    Shift=    0.000
 Gap=     0.352 Goal=   None    Shift=    0.000
 RMSDP=2.47D-03 MaxDP=4.09D-02 DE=-3.15D-01 OVMax= 8.64D-02

 Cycle   3  Pass 1  IDiag  1:
 E= -345.242821104185     Delta-E=       -0.053041569552 Rises=F Damp=F
 DIIS: error= 5.85D-03 at cycle   3 NSaved=   3.
 NSaved= 3 IEnMin= 3 EnMin= -345.242821104185     IErMin= 3 ErrMin= 5.85D-03
 ErrMax= 5.85D-03 EMaxC= 1.00D-01 BMatC= 1.83D-02 BMatP= 2.14D-01
 IDIUse=3 WtCom= 9.42D-01 WtEn= 5.85D-02
 Coeff-Com: -0.200D-01 0.144D+00 0.876D+00
 Coeff-En:   0.000D+00 0.000D+00 0.100D+01
 Coeff:     -0.189D-01 0.136D+00 0.883D+00
 Gap=     0.498 Goal=   None    Shift=    0.000
 Gap=     0.359 Goal=   None    Shift=    0.000
 RMSDP=6.76D-04 MaxDP=1.65D-02 DE=-5.30D-02 OVMax= 5.04D-02

 Cycle   4  Pass 1  IDiag  1:
 E= -345.250998871726     Delta-E=       -0.008177767541 Rises=F Damp=F
 DIIS: error= 4.01D-03 at cycle   4 NSaved=   4.
 NSaved= 4 IEnMin= 4 EnMin= -345.250998871726     IErMin= 4 ErrMin= 4.01D-03
 ErrMax= 4.01D-03 EMaxC= 1.00D-01 BMatC= 3.86D-03 BMatP= 1.83D-02
 IDIUse=3 WtCom= 9.60D-01 WtEn= 4.01D-02
 Coeff-Com: -0.709D-02-0.185D-01 0.943D-01 0.931D+00
 Coeff-En:   0.000D+00 0.000D+00 0.000D+00 0.100D+01
 Coeff:     -0.681D-02-0.177D-01 0.905D-01 0.934D+00
 Gap=     0.497 Goal=   None    Shift=    0.000
 Gap=     0.376 Goal=   None    Shift=    0.000
 RMSDP=3.77D-04 MaxDP=1.18D-02 DE=-8.18D-03 OVMax= 2.90D-02

 Cycle   5  Pass 1  IDiag  1:
 E= -345.254075197532     Delta-E=       -0.003076325807 Rises=F Damp=F
 DIIS: error= 2.34D-03 at cycle   5 NSaved=   5.
 NSaved= 5 IEnMin= 5 EnMin= -345.254075197532     IErMin= 5 ErrMin= 2.34D-03
 ErrMax= 2.34D-03 EMaxC= 1.00D-01 BMatC= 1.97D-03 BMatP= 3.86D-03
 IDIUse=3 WtCom= 9.77D-01 WtEn= 2.34D-02
 Coeff-Com:  0.121D-01-0.647D-01-0.441D+00-0.138D+00 0.163D+01
 Coeff-En:   0.000D+00 0.000D+00 0.000D+00 0.000D+00 0.100D+01
 Coeff:      0.118D-01-0.632D-01-0.431D+00-0.135D+00 0.162D+01
 Gap=     0.508 Goal=   None    Shift=    0.000
 Gap=     0.403 Goal=   None    Shift=    0.000
 RMSDP=5.91D-04 MaxDP=1.94D-02 DE=-3.08D-03 OVMax= 4.20D-02

 Cycle   6  Pass 1  IDiag  1:
 E= -345.256991250087     Delta-E=       -0.002916052555 Rises=F Damp=F
 DIIS: error= 1.05D-03 at cycle   6 NSaved=   6.
 NSaved= 6 IEnMin= 6 EnMin= -345.256991250087     IErMin= 6 ErrMin= 1.05D-03
 ErrMax= 1.05D-03 EMaxC= 1.00D-01 BMatC= 5.07D-04 BMatP= 1.97D-03
 IDIUse=3 WtCom= 9.89D-01 WtEn= 1.05D-02
 Coeff-Com:  0.289D-02 0.202D-02-0.531D-01-0.170D+00 0.187D+00 0.103D+01
 Coeff-En:   0.000D+00 0.000D+00 0.000D+00 0.000D+00 0.000D+00 0.100D+01
 Coeff:      0.286D-02 0.200D-02-0.525D-01-0.169D+00 0.185D+00 0.103D+01
 Gap=     0.511 Goal=   None    Shift=    0.000
 Gap=     0.412 Goal=   None    Shift=    0.000
 RMSDP=2.09D-04 MaxDP=5.06D-03 DE=-2.92D-03 OVMax= 1.66D-02

 Cycle   7  Pass 1  IDiag  1:
 E= -345.257622747395     Delta-E=       -0.000631497308 Rises=F Damp=F
 DIIS: error= 8.01D-04 at cycle   7 NSaved=   7.
 NSaved= 7 IEnMin= 7 EnMin= -345.257622747395     IErMin= 7 ErrMin= 8.01D-04
 ErrMax= 8.01D-04 EMaxC= 1.00D-01 BMatC= 2.63D-04 BMatP= 5.07D-04
 IDIUse=3 WtCom= 9.92D-01 WtEn= 8.01D-03
 Coeff-Com: -0.355D-02 0.234D-01 0.137D+00 0.315D-01-0.536D+00 0.924D-01
 Coeff-Com:  0.126D+01
 Coeff-En:   0.000D+00 0.000D+00 0.000D+00 0.000D+00 0.000D+00 0.000D+00
 Coeff-En:   0.100D+01
 Coeff:     -0.352D-02 0.232D-01 0.136D+00 0.312D-01-0.532D+00 0.917D-01
 Coeff:      0.125D+01
 Gap=     0.514 Goal=   None    Shift=    0.000
 Gap=     0.416 Goal=   None    Shift=    0.000
 RMSDP=2.06D-04 MaxDP=5.39D-03 DE=-6.31D-04 OVMax= 1.85D-02

 Cycle   8  Pass 1  IDiag  1:
 E= -345.258110477283     Delta-E=       -0.000487729888 Rises=F Damp=F
 DIIS: error= 6.96D-04 at cycle   8 NSaved=   8.
 NSaved= 8 IEnMin= 8 EnMin= -345.258110477283     IErMin= 8 ErrMin= 6.96D-04
 ErrMax= 6.96D-04 EMaxC= 1.00D-01 BMatC= 1.39D-04 BMatP= 2.63D-04
 IDIUse=3 WtCom= 9.93D-01 WtEn= 6.96D-03
 Coeff-Com:  0.234D-02-0.241D-01-0.114D+00 0.654D-01 0.383D+00-0.578D+00
 Coeff-Com: -0.120D+01 0.247D+01
 Coeff-En:   0.000D+00 0.000D+00 0.000D+00 0.000D+00 0.000D+00 0.000D+00
 Coeff-En:   0.000D+00 0.100D+01
 Coeff:      0.233D-02-0.239D-01-0.114D+00 0.650D-01 0.380D+00-0.574D+00
 Coeff:     -0.119D+01 0.246D+01
 Gap=     0.520 Goal=   None    Shift=    0.000
 Gap=     0.422 Goal=   None    Shift=    0.000
 RMSDP=3.16D-04 MaxDP=8.74D-03 DE=-4.88D-04 OVMax= 2.97D-02

 Cycle   9  Pass 1  IDiag  1:
 E= -345.258602883397     Delta-E=       -0.000492406113 Rises=F Damp=F
 DIIS: error= 4.26D-04 at cycle   9 NSaved=   9.
 NSaved= 9 IEnMin= 9 EnMin= -345.258602883397     IErMin= 9 ErrMin= 4.26D-04
 ErrMax= 4.26D-04 EMaxC= 1.00D-01 BMatC= 4.01D-05 BMatP= 1.39D-04
 IDIUse=3 WtCom= 9.96D-01 WtEn= 4.26D-03
 Coeff-Com:  0.134D-02-0.486D-02-0.409D-01-0.554D-01 0.213D+00 0.139D+00
 Coeff-Com: -0.186D+00-0.892D+00 0.183D+01
 Coeff-En:   0.000D+00 0.000D+00 0.000D+00 0.000D+00 0.000D+00 0.000D+00
 Coeff-En:   0.000D+00 0.000D+00 0.100D+01
 Coeff:      0.134D-02-0.484D-02-0.407D-01-0.552D-01 0.212D+00 0.138D+00
 Coeff:     -0.185D+00-0.889D+00 0.182D+01
 Gap=     0.524 Goal=   None    Shift=    0.000
 Gap=     0.425 Goal=   None    Shift=    0.000
 RMSDP=2.03D-04 MaxDP=5.81D-03 DE=-4.92D-04 OVMax= 1.88D-02

 Cycle  10  Pass 1  IDiag  1:
 E= -345.258740960013     Delta-E=       -0.000138076616 Rises=F Damp=F
 DIIS: error= 1.68D-04 at cycle  10 NSaved=  10.
 NSaved=10 IEnMin=10 EnMin= -345.258740960013     IErMin=10 ErrMin= 1.68D-04
 ErrMax= 1.68D-04 EMaxC= 1.00D-01 BMatC= 6.26D-06 BMatP= 4.01D-05
 IDIUse=3 WtCom= 9.98D-01 WtEn= 1.68D-03
 Coeff-Com: -0.431D-03 0.409D-02 0.215D-01-0.201D-01-0.553D-01 0.866D-01
 Coeff-Com:  0.198D+00-0.283D+00-0.237D+00 0.129D+01
 Coeff-En:   0.000D+00 0.000D+00 0.000D+00 0.000D+00 0.000D+00 0.000D+00
 Coeff-En:   0.000D+00 0.000D+00 0.000D+00 0.100D+01
 Coeff:     -0.431D-03 0.408D-02 0.214D-01-0.201D-01-0.552D-01 0.865D-01
 Coeff:      0.197D+00-0.282D+00-0.237D+00 0.129D+01
 Gap=     0.525 Goal=   None    Shift=    0.000
 Gap=     0.425 Goal=   None    Shift=    0.000
 RMSDP=4.20D-05 MaxDP=1.14D-03 DE=-1.38D-04 OVMax= 4.09D-03

 Cycle  11  Pass 1  IDiag  1:
 E= -345.258752471928     Delta-E=       -0.000011511915 Rises=F Damp=F
 DIIS: error= 8.46D-05 at cycle  11 NSaved=  11.
 NSaved=11 IEnMin=11 EnMin= -345.258752471928     IErMin=11 ErrMin= 8.46D-05
 ErrMax= 8.46D-05 EMaxC= 1.00D-01 BMatC= 1.93D-06 BMatP= 6.26D-06
 IDIUse=1 WtCom= 1.00D+00 WtEn= 0.00D+00
 Coeff-Com: -0.261D-03 0.927D-03 0.930D-02 0.408D-02-0.347D-01-0.226D-01
 Coeff-Com:  0.604D-02 0.211D+00-0.375D+00-0.120D+00 0.132D+01
 Coeff:     -0.261D-03 0.927D-03 0.930D-02 0.408D-02-0.347D-01-0.226D-01
 Coeff:      0.604D-02 0.211D+00-0.375D+00-0.120D+00 0.132D+01
 Gap=     0.525 Goal=   None    Shift=    0.000
 Gap=     0.425 Goal=   None    Shift=    0.000
 RMSDP=2.26D-05 MaxDP=5.56D-04 DE=-1.15D-05 OVMax= 2.28D-03

 Cycle  12  Pass 1  IDiag  1:
 E= -345.258756012957     Delta-E=       -0.000003541030 Rises=F Damp=F
 DIIS: error= 4.92D-05 at cycle  12 NSaved=  12.
 NSaved=12 IEnMin=12 EnMin= -345.258756012957     IErMin=12 ErrMin= 4.92D-05
 ErrMax= 4.92D-05 EMaxC= 1.00D-01 BMatC= 6.94D-07 BMatP= 1.93D-06
 IDIUse=1 WtCom= 1.00D+00 WtEn= 0.00D+00
 Coeff-Com:  0.210D-03-0.137D-02-0.800D-02-0.500D-02 0.372D-01-0.992D-02
 Coeff-Com: -0.681D-01-0.590D-02 0.211D+00-0.302D+00-0.468D+00 0.162D+01
 Coeff:      0.210D-03-0.137D-02-0.800D-02-0.500D-02 0.372D-01-0.992D-02
 Coeff:     -0.681D-01-0.590D-02 0.211D+00-0.302D+00-0.468D+00 0.162D+01
 Gap=     0.525 Goal=   None    Shift=    0.000
 Gap=     0.425 Goal=   None    Shift=    0.000
 RMSDP=1.57D-05 MaxDP=3.85D-04 DE=-3.54D-06 OVMax= 1.58D-03

 Cycle  13  Pass 1  IDiag  1:
 E= -345.258757371676     Delta-E=       -0.000001358719 Rises=F Damp=F
 DIIS: error= 2.96D-05 at cycle  13 NSaved=  13.
 NSaved=13 IEnMin=13 EnMin= -345.258757371676     IErMin=13 ErrMin= 2.96D-05
 ErrMax= 2.96D-05 EMaxC= 1.00D-01 BMatC= 2.34D-07 BMatP= 6.94D-07
 IDIUse=1 WtCom= 1.00D+00 WtEn= 0.00D+00
 Coeff-Com:  0.493D-04-0.920D-04-0.134D-02-0.386D-02 0.130D-01 0.570D-02
 Coeff-Com:  0.880D-02-0.697D-01 0.105D+00 0.856D-01-0.400D+00-0.204D+00
 Coeff-Com:  0.146D+01
 Coeff:      0.493D-04-0.920D-04-0.134D-02-0.386D-02 0.130D-01 0.570D-02
 Coeff:      0.880D-02-0.697D-01 0.105D+00 0.856D-01-0.400D+00-0.204D+00
 Coeff:      0.146D+01
 Gap=     0.525 Goal=   None    Shift=    0.000
 Gap=     0.425 Goal=   None    Shift=    0.000
 RMSDP=8.94D-06 MaxDP=3.15D-04 DE=-1.36D-06 OVMax= 8.13D-04

 Cycle  14  Pass 1  IDiag  1:
 E= -345.258757815266     Delta-E=       -0.000000443590 Rises=F Damp=F
 DIIS: error= 1.51D-05 at cycle  14 NSaved=  14.
 NSaved=14 IEnMin=14 EnMin= -345.258757815266     IErMin=14 ErrMin= 1.51D-05
 ErrMax= 1.51D-05 EMaxC= 1.00D-01 BMatC= 6.87D-08 BMatP= 2.34D-07
 IDIUse=1 WtCom= 1.00D+00 WtEn= 0.00D+00
 Coeff-Com: -0.622D-04 0.405D-03 0.271D-02 0.179D-03-0.979D-02 0.287D-02
 Coeff-Com:  0.199D-01 0.425D-02-0.755D-01 0.109D+00 0.179D+00-0.608D+00
 Coeff-Com:  0.482D-01 0.133D+01
 Coeff:     -0.622D-04 0.405D-03 0.271D-02 0.179D-03-0.979D-02 0.287D-02
 Coeff:      0.199D-01 0.425D-02-0.755D-01 0.109D+00 0.179D+00-0.608D+00
 Coeff:      0.482D-01 0.133D+01
 Gap=     0.525 Goal=   None    Shift=    0.000
 Gap=     0.425 Goal=   None    Shift=    0.000
 RMSDP=5.20D-06 MaxDP=1.85D-04 DE=-4.44D-07 OVMax= 4.76D-04

 Cycle  15  Pass 1  IDiag  1:
 E= -345.258757944422     Delta-E=       -0.000000129156 Rises=F Damp=F
 DIIS: error= 6.88D-06 at cycle  15 NSaved=  15.
 NSaved=15 IEnMin=15 EnMin= -345.258757944422     IErMin=15 ErrMin= 6.88D-06
 ErrMax= 6.88D-06 EMaxC= 1.00D-01 BMatC= 1.63D-08 BMatP= 6.87D-08
 IDIUse=1 WtCom= 1.00D+00 WtEn= 0.00D+00
 Coeff-Com:  0.119D-04-0.122D-03-0.510D-03 0.972D-04 0.526D-03-0.843D-03
 Coeff-Com: -0.107D-01 0.147D-01-0.583D-03-0.541D-01 0.433D-01 0.217D+00
 Coeff-Com: -0.329D+00-0.512D+00 0.163D+01
 Coeff:      0.119D-04-0.122D-03-0.510D-03 0.972D-04 0.526D-03-0.843D-03
 Coeff:     -0.107D-01 0.147D-01-0.583D-03-0.541D-01 0.433D-01 0.217D+00
 Coeff:     -0.329D+00-0.512D+00 0.163D+01
 Gap=     0.525 Goal=   None    Shift=    0.000
 Gap=     0.425 Goal=   None    Shift=    0.000
 RMSDP=3.05D-06 MaxDP=9.26D-05 DE=-1.29D-07 OVMax= 2.62D-04

 Cycle  16  Pass 1  IDiag  1:
 E= -345.258757976354     Delta-E=       -0.000000031931 Rises=F Damp=F
 DIIS: error= 5.73D-06 at cycle  16 NSaved=  16.
 NSaved=16 IEnMin=16 EnMin= -345.258757976354     IErMin=16 ErrMin= 5.73D-06
 ErrMax= 5.73D-06 EMaxC= 1.00D-01 BMatC= 3.93D-09 BMatP= 1.63D-08
 IDIUse=1 WtCom= 1.00D+00 WtEn= 0.00D+00
 Coeff-Com:  0.599D-05-0.288D-04-0.320D-03-0.811D-04 0.187D-02-0.859D-03
 Coeff-Com: -0.350D-03-0.292D-02 0.129D-01-0.711D-02-0.464D-01 0.821D-01
 Coeff-Com:  0.624D-01-0.166D+00-0.422D+00 0.149D+01
 Coeff:      0.599D-05-0.288D-04-0.320D-03-0.811D-04 0.187D-02-0.859D-03
 Coeff:     -0.350D-03-0.292D-02 0.129D-01-0.711D-02-0.464D-01 0.821D-01
 Coeff:      0.624D-01-0.166D+00-0.422D+00 0.149D+01
 Gap=     0.525 Goal=   None    Shift=    0.000
 Gap=     0.425 Goal=   None    Shift=    0.000
 RMSDP=1.10D-06 MaxDP=3.15D-05 DE=-3.19D-08 OVMax= 6.78D-05

 Cycle  17  Pass 1  IDiag  1:
 E= -345.258757981996     Delta-E=       -0.000000005642 Rises=F Damp=F
 DIIS: error= 3.07D-06 at cycle  17 NSaved=  17.
 NSaved=17 IEnMin=17 EnMin= -345.258757981996     IErMin=17 ErrMin= 3.07D-06
 ErrMax= 3.07D-06 EMaxC= 1.00D-01 BMatC= 1.06D-09 BMatP= 3.93D-09
 IDIUse=1 WtCom= 1.00D+00 WtEn= 0.00D+00
 Coeff-Com: -0.345D-05 0.344D-04 0.148D-03-0.269D-04-0.320D-03 0.397D-03
 Coeff-Com:  0.299D-02-0.407D-02-0.122D-02 0.151D-01-0.785D-02-0.646D-01
 Coeff-Com:  0.787D-01 0.150D+00-0.386D+00-0.113D+00 0.133D+01
 Coeff:     -0.345D-05 0.344D-04 0.148D-03-0.269D-04-0.320D-03 0.397D-03
 Coeff:      0.299D-02-0.407D-02-0.122D-02 0.151D-01-0.785D-02-0.646D-01
 Coeff:      0.787D-01 0.150D+00-0.386D+00-0.113D+00 0.133D+01
 Gap=     0.525 Goal=   None    Shift=    0.000
 Gap=     0.425 Goal=   None    Shift=    0.000
 RMSDP=4.49D-07 MaxDP=1.18D-05 DE=-5.64D-09 OVMax= 2.61D-05

 Cycle  18  Pass 1  IDiag  1:
 E= -345.258757983501     Delta-E=       -0.000000001505 Rises=F Damp=F
 DIIS: error= 1.72D-06 at cycle  18 NSaved=  18.
 NSaved=18 IEnMin=18 EnMin= -345.258757983501     IErMin=18 ErrMin= 1.72D-06
 ErrMax= 1.72D-06 EMaxC= 1.00D-01 BMatC= 4.07D-10 BMatP= 1.06D-09
 IDIUse=1 WtCom= 1.00D+00 WtEn= 0.00D+00
 Coeff-Com: -0.661D-06-0.142D-05 0.423D-04 0.553D-04-0.568D-03 0.327D-03
 Coeff-Com: -0.760D-03 0.174D-02-0.342D-02-0.285D-02 0.157D-01-0.218D-02
 Coeff-Com: -0.404D-01-0.897D-02 0.242D+00-0.316D+00-0.626D+00 0.174D+01
 Coeff:     -0.661D-06-0.142D-05 0.423D-04 0.553D-04-0.568D-03 0.327D-03
 Coeff:     -0.760D-03 0.174D-02-0.342D-02-0.285D-02 0.157D-01-0.218D-02
 Coeff:     -0.404D-01-0.897D-02 0.242D+00-0.316D+00-0.626D+00 0.174D+01
 Gap=     0.525 Goal=   None    Shift=    0.000
 Gap=     0.425 Goal=   None    Shift=    0.000
 RMSDP=3.74D-07 MaxDP=8.02D-06 DE=-1.51D-09 OVMax= 2.48D-05

 Cycle  19  Pass 1  IDiag  1:
 E= -345.258757984199     Delta-E=       -0.000000000698 Rises=F Damp=F
 DIIS: error= 9.86D-07 at cycle  19 NSaved=  19.
 NSaved=19 IEnMin=19 EnMin= -345.258757984199     IErMin=19 ErrMin= 9.86D-07
 ErrMax= 9.86D-07 EMaxC= 1.00D-01 BMatC= 1.43D-10 BMatP= 4.07D-10
 IDIUse=1 WtCom= 1.00D+00 WtEn= 0.00D+00
 Coeff-Com: -0.788D-06 0.493D-05 0.222D-04 0.706D-04-0.713D-04-0.279D-03
 Coeff-Com:  0.140D-03 0.114D-02-0.492D-03-0.149D-02 0.367D-03 0.140D-01
 Coeff-Com: -0.959D-02-0.316D-01 0.166D-01 0.195D+00-0.286D+00-0.698D+00
 Coeff-Com:  0.180D+01
 Coeff:     -0.788D-06 0.493D-05 0.222D-04 0.706D-04-0.713D-04-0.279D-03
 Coeff:      0.140D-03 0.114D-02-0.492D-03-0.149D-02 0.367D-03 0.140D-01
 Coeff:     -0.959D-02-0.316D-01 0.166D-01 0.195D+00-0.286D+00-0.698D+00
 Coeff:      0.180D+01
 Gap=     0.525 Goal=   None    Shift=    0.000
 Gap=     0.425 Goal=   None    Shift=    0.000
 RMSDP=2.60D-07 MaxDP=6.27D-06 DE=-6.98D-10 OVMax= 1.27D-05

 Cycle  20  Pass 1  IDiag  1:
 E= -345.258757984473     Delta-E=       -0.000000000274 Rises=F Damp=F
 DIIS: error= 3.97D-07 at cycle  20 NSaved=  20.
 NSaved=20 IEnMin=20 EnMin= -345.258757984473     IErMin=20 ErrMin= 3.97D-07
 ErrMax= 3.97D-07 EMaxC= 1.00D-01 BMatC= 3.25D-11 BMatP= 1.43D-10
 IDIUse=1 WtCom= 1.00D+00 WtEn= 0.00D+00
 Coeff-Com:  0.240D-07 0.125D-05-0.720D-05-0.235D-04 0.117D-03 0.309D-04
 Coeff-Com:  0.376D-03-0.120D-02 0.113D-02 0.189D-02-0.527D-02-0.644D-02
 Coeff-Com:  0.202D-01 0.138D-01-0.899D-01 0.433D-01 0.298D+00-0.378D+00
 Coeff-Com: -0.495D+00 0.160D+01
 Coeff:      0.240D-07 0.125D-05-0.720D-05-0.235D-04 0.117D-03 0.309D-04
 Coeff:      0.376D-03-0.120D-02 0.113D-02 0.189D-02-0.527D-02-0.644D-02
 Coeff:      0.202D-01 0.138D-01-0.899D-01 0.433D-01 0.298D+00-0.378D+00
 Coeff:     -0.495D+00 0.160D+01
 Gap=     0.525 Goal=   None    Shift=    0.000
 Gap=     0.425 Goal=   None    Shift=    0.000
 RMSDP=1.27D-07 MaxDP=2.71D-06 DE=-2.74D-10 OVMax= 7.15D-06

 Cycle  21  Pass 1  IDiag  1:
 E= -345.258757984535     Delta-E=       -0.000000000062 Rises=F Damp=F
 DIIS: error= 1.28D-07 at cycle  21 NSaved=  20.
 NSaved=20 IEnMin=20 EnMin= -345.258757984535     IErMin=20 ErrMin= 1.28D-07
 ErrMax= 1.28D-07 EMaxC= 1.00D-01 BMatC= 4.01D-12 BMatP= 3.25D-11
 IDIUse=1 WtCom= 1.00D+00 WtEn= 0.00D+00
 Coeff-Com:  0.859D-07 0.125D-05-0.649D-05-0.206D-04 0.530D-04 0.103D-04
 Coeff-Com: -0.127D-03-0.695D-04 0.283D-03 0.385D-03-0.278D-02 0.168D-02
 Coeff-Com:  0.282D-02 0.352D-02-0.339D-01 0.269D-01 0.137D+00-0.213D+00
 Coeff-Com: -0.264D+00 0.134D+01
 Coeff:      0.859D-07 0.125D-05-0.649D-05-0.206D-04 0.530D-04 0.103D-04
 Coeff:     -0.127D-03-0.695D-04 0.283D-03 0.385D-03-0.278D-02 0.168D-02
 Coeff:      0.282D-02 0.352D-02-0.339D-01 0.269D-01 0.137D+00-0.213D+00
 Coeff:     -0.264D+00 0.134D+01
 Gap=     0.525 Goal=   None    Shift=    0.000
 Gap=     0.425 Goal=   None    Shift=    0.000
 RMSDP=3.62D-08 MaxDP=6.97D-07 DE=-6.23D-11 OVMax= 2.20D-06

 Cycle  22  Pass 1  IDiag  1:
 E= -345.258757984542     Delta-E=       -0.000000000007 Rises=F Damp=F
 DIIS: error= 3.44D-08 at cycle  22 NSaved=  20.
 NSaved=20 IEnMin=20 EnMin= -345.258757984542     IErMin=20 ErrMin= 3.44D-08
 ErrMax= 3.44D-08 EMaxC= 1.00D-01 BMatC= 6.59D-13 BMatP= 4.01D-12
 IDIUse=1 WtCom= 1.00D+00 WtEn= 0.00D+00
 Coeff-Com:  0.132D-05 0.485D-05-0.154D-04-0.115D-04-0.416D-04 0.184D-03
 Coeff-Com: -0.170D-03-0.270D-03 0.748D-03 0.105D-02-0.270D-02-0.243D-02
 Coeff-Com:  0.132D-01-0.554D-02-0.421D-01 0.466D-01 0.853D-01-0.218D+00
 Coeff-Com: -0.741D-01 0.120D+01
 Coeff:      0.132D-05 0.485D-05-0.154D-04-0.115D-04-0.416D-04 0.184D-03
 Coeff:     -0.170D-03-0.270D-03 0.748D-03 0.105D-02-0.270D-02-0.243D-02
 Coeff:      0.132D-01-0.554D-02-0.421D-01 0.466D-01 0.853D-01-0.218D+00
 Coeff:     -0.741D-01 0.120D+01
 Gap=     0.525 Goal=   None    Shift=    0.000
 Gap=     0.425 Goal=   None    Shift=    0.000
 RMSDP=1.16D-08 MaxDP=2.17D-07 DE=-7.05D-12 OVMax= 8.62D-07

 Cycle  23  Pass 1  IDiag  1:
 E= -345.258757984541     Delta-E=        0.000000000001 Rises=F Damp=F
 DIIS: error= 1.86D-08 at cycle  23 NSaved=  20.
 NSaved=20 IEnMin=19 EnMin= -345.258757984542     IErMin=20 ErrMin= 1.86D-08
 ErrMax= 1.86D-08 EMaxC= 1.00D-01 BMatC= 1.41D-13 BMatP= 6.59D-13
 IDIUse=1 WtCom= 1.00D+00 WtEn= 0.00D+00
 Coeff-Com:  0.540D-06 0.235D-05-0.761D-05 0.166D-05 0.794D-05 0.177D-04
 Coeff-Com: -0.472D-04-0.908D-04 0.436D-03-0.284D-03-0.399D-03-0.762D-03
 Coeff-Com:  0.525D-02-0.238D-02-0.246D-01 0.272D-01 0.679D-01-0.234D+00
 Coeff-Com: -0.125D+00 0.129D+01
 Coeff:      0.540D-06 0.235D-05-0.761D-05 0.166D-05 0.794D-05 0.177D-04
 Coeff:     -0.472D-04-0.908D-04 0.436D-03-0.284D-03-0.399D-03-0.762D-03
 Coeff:      0.525D-02-0.238D-02-0.246D-01 0.272D-01 0.679D-01-0.234D+00
 Coeff:     -0.125D+00 0.129D+01
 Gap=     0.525 Goal=   None    Shift=    0.000
 Gap=     0.425 Goal=   None    Shift=    0.000
 RMSDP=4.37D-09 MaxDP=9.49D-08 DE= 1.14D-12 OVMax= 1.56D-07

 SCF Done:  E(UHF) =  -345.258757985     A.U. after   23 cycles
             Convg  =    0.4367D-08             -V/T =  2.0014
 <Sx>= 0.0000 <Sy>= 0.0000 <Sz>= 0.5000 <S**2>= 1.0009 S= 0.6184
 <L.S>= 0.000000000000E+00
 KE= 3.447789654325D+02 PE=-1.415014905693D+03 EE= 4.223762605174D+02
 Annihilation of the first spin contaminant:
 S**2 before annihilation     1.0009,   after     0.7764
 Leave Link  502 at Mon Apr 30 12:29:21 2018, MaxMem=  671088640 cpu:     373.5
 (Enter /shared/apps/gaussian/G09_LINUX_LINDA/g09/l801.exe)
 Range of M.O.s used for correlation:     1   127
 NBasis=   127 NAE=    29 NBE=    28 NFC=     0 NFV=     0
 NROrb=    127 NOA=    29 NOB=    28 NVA=    98 NVB=    99
 Leave Link  801 at Mon Apr 30 12:29:21 2018, MaxMem=  671088640 cpu:       0.4
 (Enter /shared/apps/gaussian/G09_LINUX_LINDA/g09/l1101.exe)
 Using compressed storage, NAtomX=    18.
 Will process  19 centers per pass.
 Leave Link 1101 at Mon Apr 30 12:29:22 2018, MaxMem=  671088640 cpu:      10.4
 (Enter /shared/apps/gaussian/G09_LINUX_LINDA/g09/l1102.exe)
 Symmetrizing basis deriv contribution to polar:
 IMax=3 JMax=2 DiffMx= 0.00D+00
 Leave Link 1102 at Mon Apr 30 12:29:23 2018, MaxMem=  671088640 cpu:       1.1
 (Enter /shared/apps/gaussian/G09_LINUX_LINDA/g09/l1110.exe)
 Forming Gx(P) for the SCF density, NAtomX=    18.
 Integral derivatives from FoFDir/FoFCou, PRISM(SPDF).
 Do as many integral derivatives as possible in FoFDir.
 G2DrvN: MDV=     671088392.
 G2DrvN: will do    19 centers at a time, making    1 passes doing MaxLOS=2.
 Calling FoFCou, ICntrl=  3107 FMM=F I1Cent=   0 AccDes= 0.00D+00.
 FoFCou: FMM=F IPFlag=           0 FMFlag=      100000 FMFlg1=           0
         NFxFlg=           0 DoJE=F BraDBF=F KetDBF=F FulRan=T
         Omega=  0.000000  0.000000  1.000000  0.000000  0.000000 ICntrl=    3107 IOpCl=  1
         NMat0=    1 NMatS0=    1 NMatT0=    0 NMatD0=    1 NMtDS0=    0 NMtDT0=    0
         I1Cent=           0 NGrid=           0.
 Symmetry not used in FoFCou.
 FoFDir/FoFCou used for L=0 through L=2.
 End of G2Drv Frequency-dependent properties file   721 does not exist.
 End of G2Drv Frequency-dependent properties file   722 does not exist.
 Leave Link 1110 at Mon Apr 30 12:29:25 2018, MaxMem=  671088640 cpu:      23.5
 (Enter /shared/apps/gaussian/G09_LINUX_LINDA/g09/l1002.exe)
 Minotr:  UHF open shell wavefunction.
          IDoAtm=111111111111111111
          Direct CPHF calculation.
          Differentiating once with respect to electric field.
                with respect to dipole field.
          Differentiating once with respect to nuclear coordinates.
          Requested convergence is 1.0D-08 RMS, and 1.0D-07 maximum.
          Secondary convergence is 1.0D-12 RMS, and 1.0D-12 maximum.
          NewPWx=T KeepS1=F KeepF1=F KeepIn=T MapXYZ=F SortEE=F KeepMc=T.
          MDV=     671088456 using IRadAn=       2.
          Keep R1 and R2 ints in memory in canonical form, NReq=66894031.
 Symmetry not used in FoFDir.
 MinBra= 0 MaxBra= 2 Meth= 1.
 IRaf=       0 NMat=   1 IRICut=       1 DoRegI=T DoRafI=F ISym2E= 0 JSym2E=0.
          Solving linear equations simultaneously, MaxMat=       0.
          There are    57 degrees of freedom in the 1st order CPHF.  IDoFFX=5.
     54 vectors produced by pass  0 Test12= 9.85D-15 1.75D-09 XBig12= 4.32D+01 4.14D+00.
 AX will form    54 AO Fock derivatives at one time.
     54 vectors produced by pass  1 Test12= 9.85D-15 1.75D-09 XBig12= 2.42D+00 3.50D-01.
     54 vectors produced by pass  2 Test12= 9.85D-15 1.75D-09 XBig12= 1.80D-01 8.59D-02.
     54 vectors produced by pass  3 Test12= 9.85D-15 1.75D-09 XBig12= 2.90D-03 7.71D-03.
     54 vectors produced by pass  4 Test12= 9.85D-15 1.75D-09 XBig12= 4.11D-05 1.09D-03.
     54 vectors produced by pass  5 Test12= 9.85D-15 1.75D-09 XBig12= 4.73D-07 7.04D-05.
     54 vectors produced by pass  6 Test12= 9.85D-15 1.75D-09 XBig12= 4.28D-09 6.00D-06.
     30 vectors produced by pass  7 Test12= 9.85D-15 1.75D-09 XBig12= 4.01D-11 4.58D-07.
      6 vectors produced by pass  8 Test12= 9.85D-15 1.75D-09 XBig12= 3.34D-13 4.50D-08.
      2 vectors produced by pass  9 Test12= 9.85D-15 1.75D-09 XBig12= 3.43D-15 4.81D-09.
 Inverted reduced A of dimension   416 with in-core refinement.
 FullF1:  Do perturbations    1 to     3.
 Isotropic polarizability for W=    0.000000       74.45 Bohr**3.
 End of Minotr Frequency-dependent properties file   721 does not exist.
 End of Minotr Frequency-dependent properties file   722 does not exist.
 Leave Link 1002 at Mon Apr 30 12:29:53 2018, MaxMem=  671088640 cpu:     272.5
 (Enter /shared/apps/gaussian/G09_LINUX_LINDA/g09/l601.exe)
 Copying SCF densities to generalized density rwf, IOpCl= 1 IROHF=0.

 **********************************************************************

            Population analysis using the SCF density.

 **********************************************************************

 Alpha  occ. eigenvalues --  -20.64354 -20.62568 -11.25061 -11.24476 -11.22574
 Alpha  occ. eigenvalues --  -11.22546 -11.22425  -1.50919  -1.18083  -1.11422
 Alpha  occ. eigenvalues --   -1.01479  -0.95125  -0.88259  -0.74137  -0.71927
 Alpha  occ. eigenvalues --   -0.71154  -0.64760  -0.62305  -0.61380  -0.61029
 Alpha  occ. eigenvalues --   -0.55854  -0.54952  -0.53499  -0.51777  -0.51244
 Alpha  occ. eigenvalues --   -0.48657  -0.48255  -0.44004  -0.33620
 Alpha virt. eigenvalues --    0.18922   0.21997   0.24188   0.26268   0.26786
 Alpha virt. eigenvalues --    0.29368   0.31398   0.31622   0.33137   0.34279
 Alpha virt. eigenvalues --    0.35801   0.38041   0.38948   0.42580   0.45785
 Alpha virt. eigenvalues --    0.49975   0.59562   0.67628   0.70636   0.73885
 Alpha virt. eigenvalues --    0.75519   0.77400   0.79596   0.83099   0.85022
 Alpha virt. eigenvalues --    0.92913   0.94271   0.95652   0.97913   0.99129
 Alpha virt. eigenvalues --    1.02927   1.05039   1.07579   1.07824   1.11795
 Alpha virt. eigenvalues --    1.13241   1.14163   1.16839   1.17330   1.18661
 Alpha virt. eigenvalues --    1.20027   1.21478   1.21503   1.23861   1.25110
 Alpha virt. eigenvalues --    1.27771   1.30130   1.31404   1.35236   1.41250
 Alpha virt. eigenvalues --    1.44960   1.52077   1.57568   1.60381   1.66666
 Alpha virt. eigenvalues --    1.68704   1.74654   1.77773   1.80054   1.80647
 Alpha virt. eigenvalues --    1.90048   1.93594   2.04184   2.10881   2.13425
 Alpha virt. eigenvalues --    2.14390   2.17157   2.18737   2.20262   2.32468
 Alpha virt. eigenvalues --    2.34225   2.34984   2.42535   2.46412   2.49114
 Alpha virt. eigenvalues --    2.54707   2.56683   2.62621   2.68777   2.74910
 Alpha virt. eigenvalues --    2.75930   2.76451   2.77967   2.83118   2.85636
 Alpha virt. eigenvalues --    2.86034   2.89251   3.01435   3.23664   3.29731
 Alpha virt. eigenvalues --    3.39938   3.97333   4.20183   4.52840   4.67446
 Alpha virt. eigenvalues --    4.71057   4.75096   4.96081
  Beta  occ. eigenvalues --  -20.62449 -20.61531 -11.23834 -11.23590 -11.22896
  Beta  occ. eigenvalues --  -11.22755 -11.22611  -1.47207  -1.12510  -1.09871
  Beta  occ. eigenvalues --   -0.99834  -0.95170  -0.86262  -0.71966  -0.71043
  Beta  occ. eigenvalues --   -0.64557  -0.63166  -0.61216  -0.59401  -0.58708
  Beta  occ. eigenvalues --   -0.55250  -0.54410  -0.53417  -0.51407  -0.48437
  Beta  occ. eigenvalues --   -0.45932  -0.45745  -0.35321
  Beta virt. eigenvalues --    0.07192   0.20514   0.21899   0.24398   0.26572
  Beta virt. eigenvalues --    0.26768   0.29542   0.31835   0.32886   0.33592
  Beta virt. eigenvalues --    0.35829   0.36330   0.38846   0.39925   0.43268
  Beta virt. eigenvalues --    0.49463   0.50332   0.59814   0.67818   0.71181
  Beta virt. eigenvalues --    0.73744   0.76465   0.78797   0.79749   0.84664
  Beta virt. eigenvalues --    0.86512   0.91635   0.95792   0.97997   0.99550
  Beta virt. eigenvalues --    0.99911   1.04076   1.06161   1.07948   1.08658
  Beta virt. eigenvalues --    1.12100   1.13604   1.13888   1.16861   1.17554
  Beta virt. eigenvalues --    1.19630   1.21038   1.21799   1.22461   1.24013
  Beta virt. eigenvalues --    1.25360   1.28308   1.32107   1.32429   1.35957
  Beta virt. eigenvalues --    1.41672   1.45591   1.54072   1.58156   1.61656
  Beta virt. eigenvalues --    1.69130   1.70162   1.76899   1.77981   1.80452
  Beta virt. eigenvalues --    1.81210   1.92126   1.95715   2.06294   2.11639
  Beta virt. eigenvalues --    2.14688   2.14904   2.19166   2.19663   2.21835
  Beta virt. eigenvalues --    2.33612   2.35440   2.36813   2.42733   2.47000
  Beta virt. eigenvalues --    2.50209   2.55428   2.56744   2.62523   2.68733
  Beta virt. eigenvalues --    2.75863   2.76361   2.77525   2.80438   2.83827
  Beta virt. eigenvalues --    2.86351   2.86824   2.91119   3.02267   3.23945
  Beta virt. eigenvalues --    3.30710   3.40128   3.97791   4.22031   4.53376
  Beta virt. eigenvalues --    4.67452   4.70884   4.76174   4.96652
          Condensed to atoms (all electrons):
              1          2          3          4          5          6
     1  O    8.315730   0.057666  -0.003298   0.000330  -0.057176   0.000002
     2  O    0.057666   8.147054   0.005613  -0.000436  -0.002144  -0.000009
     3  C   -0.003298   0.005613   5.014967   0.605082   0.359286  -0.043782
     4  C    0.000330  -0.000436   0.605082   4.978827  -0.049689   0.344354
     5  C   -0.057176  -0.002144   0.359286  -0.049689   5.309858  -0.007418
     6  C    0.000002  -0.000009  -0.043782   0.344354  -0.007418   5.108046
     7  C   -0.000001  -0.000004  -0.043382   0.345964   0.003338  -0.066479
     8  H   -0.027697   0.255725   0.001575   0.000655  -0.000524  -0.000005
     9  H    0.000010   0.000263   0.395624  -0.039352  -0.038627   0.003450
    10  H    0.034667  -0.024515  -0.036738  -0.003200   0.231071   0.000242
    11  H   -0.000291   0.000325  -0.032882   0.002200   0.385567   0.000126
    12  H   -0.000020   0.000269  -0.037056   0.000168   0.384920  -0.000445
    13  H    0.000000   0.000000   0.000021  -0.041416   0.000196   0.390000
    14  H    0.000040  -0.000004  -0.002871  -0.035535  -0.000713   0.394987
    15  H   -0.000004   0.000003   0.000740  -0.041743   0.000192   0.390973
    16  H    0.000000   0.000000  -0.000531  -0.042375  -0.000097  -0.000816
    17  H    0.000000   0.000001   0.000442  -0.042271  -0.000083  -0.001500
    18  H    0.000000  -0.000002  -0.000849  -0.040689   0.000145   0.003651
              7          8          9         10         11         12
     1  O   -0.000001  -0.027697   0.000010   0.034667  -0.000291  -0.000020
     2  O   -0.000004   0.255725   0.000263  -0.024515   0.000325   0.000269
     3  C   -0.043382   0.001575   0.395624  -0.036738  -0.032882  -0.037056
     4  C    0.345964   0.000655  -0.039352  -0.003200   0.002200   0.000168
     5  C    0.003338  -0.000524  -0.038627   0.231071   0.385567   0.384920
     6  C   -0.066479  -0.000005   0.003450   0.000242   0.000126  -0.000445
     7  C    5.101977  -0.000002  -0.005174  -0.000044  -0.000075   0.000032
     8  H   -0.000002   0.316207   0.000026  -0.001524   0.000005   0.000027
     9  H   -0.005174   0.000026   0.490403   0.000075  -0.002872   0.002687
    10  H   -0.000044  -0.001524   0.000075   0.505427  -0.022121  -0.020383
    11  H   -0.000075   0.000005  -0.002872  -0.022121   0.486296  -0.022488
    12  H    0.000032   0.000027   0.002687  -0.020383  -0.022488   0.494003
    13  H   -0.001563   0.000001  -0.000108  -0.000033   0.000009   0.000056
    14  H    0.003623   0.000000   0.000037  -0.000077   0.000052   0.000684
    15  H   -0.002195  -0.000020  -0.000101   0.000095  -0.000007  -0.000095
    16  H    0.389901   0.000001   0.000118  -0.000004   0.000005   0.000006
    17  H    0.388375  -0.000019   0.000138   0.000018  -0.000001  -0.000004
    18  H    0.395259   0.000000   0.003016  -0.000002  -0.000008   0.000005
             13         14         15         16         17         18
     1  O    0.000000   0.000040  -0.000004   0.000000   0.000000   0.000000
     2  O    0.000000  -0.000004   0.000003   0.000000   0.000001  -0.000002
     3  C    0.000021  -0.002871   0.000740  -0.000531   0.000442  -0.000849
     4  C   -0.041416  -0.035535  -0.041743  -0.042375  -0.042271  -0.040689
     5  C    0.000196  -0.000713   0.000192  -0.000097  -0.000083   0.000145
     6  C    0.390000   0.394987   0.390973  -0.000816  -0.001500   0.003651
     7  C   -0.001563   0.003623  -0.002195   0.389901   0.388375   0.395259
     8  H    0.000001   0.000000  -0.000020   0.000001  -0.000019   0.000000
     9  H   -0.000108   0.000037  -0.000101   0.000118   0.000138   0.003016
    10  H   -0.000033  -0.000077   0.000095  -0.000004   0.000018  -0.000002
    11  H    0.000009   0.000052  -0.000007   0.000005  -0.000001  -0.000008
    12  H    0.000056   0.000684  -0.000095   0.000006  -0.000004   0.000005
    13  H    0.533840  -0.024774  -0.033126   0.002585  -0.000378  -0.000056
    14  H   -0.024774   0.511910  -0.025955  -0.000040  -0.000065  -0.000092
    15  H   -0.033126  -0.025955   0.538450  -0.000400   0.002695  -0.000036
    16  H    0.002585  -0.000040  -0.000400   0.539534  -0.034695  -0.024308
    17  H   -0.000378  -0.000065   0.002695  -0.034695   0.545567  -0.024855
    18  H   -0.000056  -0.000092  -0.000036  -0.024308  -0.024855   0.511820
 Mulliken atomic charges:
              1
     1  O   -0.319958
     2  O   -0.439806
     3  C   -0.181961
     4  C    0.059126
     5  C   -0.518101
     6  C   -0.515378
     7  C   -0.509550
     8  H    0.455571
     9  H    0.190387
    10  H    0.337047
    11  H    0.206160
    12  H    0.197635
    13  H    0.174745
    14  H    0.178793
    15  H    0.170536
    16  H    0.171118
    17  H    0.166636
    18  H    0.176999
 Sum of Mulliken atomic charges =   0.00000
 Mulliken charges with hydrogens summed into heavy atoms:
              1
     1  O    0.017089
     2  O    0.015765
     3  C    0.008426
     4  C    0.059126
     5  C   -0.114305
     6  C    0.008696
     7  C    0.005203
 Sum of Mulliken charges with hydrogens summed into heavy atoms =   0.00000
          Atomic-Atomic Spin Densities.
              1          2          3          4          5          6
     1  O    0.777630  -0.052932   0.006956   0.000623  -0.068371  -0.000021
     2  O   -0.052932   0.028250  -0.002918  -0.000449   0.008010   0.000009
     3  C    0.006956  -0.002918  -0.724458   0.029531  -0.038312   0.000084
     4  C    0.000623  -0.000449   0.029531   0.846215  -0.012977  -0.027937
     5  C   -0.068371   0.008010  -0.038312  -0.012977   0.777580   0.000324
     6  C   -0.000021   0.000009   0.000084  -0.027937   0.000324  -0.087584
     7  C    0.000002  -0.000003  -0.000389  -0.024782   0.000022   0.002274
     8  H   -0.000028  -0.000555  -0.000677   0.000307  -0.000247  -0.000014
     9  H   -0.000060   0.000057   0.007559  -0.002123  -0.001577   0.000039
    10  H   -0.079418   0.019620   0.019000  -0.000175   0.071007  -0.000066
    11  H    0.002924  -0.000407   0.004948  -0.000141  -0.023662  -0.000019
    12  H    0.002032  -0.000155   0.003631  -0.000541  -0.020405   0.000332
    13  H    0.000001   0.000000  -0.000042  -0.012686   0.000118   0.007291
    14  H    0.000000   0.000001   0.000834  -0.002160  -0.000412   0.003498
    15  H   -0.000010   0.000004   0.000081  -0.011857   0.000128   0.007723
    16  H    0.000000   0.000000  -0.000173  -0.012925   0.000023   0.000468
    17  H   -0.000001   0.000004   0.000249  -0.013293   0.000022   0.000596
    18  H    0.000000   0.000000   0.000953  -0.002225  -0.000003  -0.000062
              7          8          9         10         11         12
     1  O    0.000002  -0.000028  -0.000060  -0.079418   0.002924   0.002032
     2  O   -0.000003  -0.000555   0.000057   0.019620  -0.000407  -0.000155
     3  C   -0.000389  -0.000677   0.007559   0.019000   0.004948   0.003631
     4  C   -0.024782   0.000307  -0.002123  -0.000175  -0.000141  -0.000541
     5  C    0.000022  -0.000247  -0.001577   0.071007  -0.023662  -0.020405
     6  C    0.002274  -0.000014   0.000039  -0.000066  -0.000019   0.000332
     7  C   -0.093017  -0.000007   0.000214   0.000019   0.000008   0.000007
     8  H   -0.000007  -0.002068  -0.000010   0.000993  -0.000003  -0.000008
     9  H    0.000214  -0.000010   0.041229  -0.000156  -0.000159  -0.000036
    10  H    0.000019   0.000993  -0.000156  -0.262531   0.009037   0.008472
    11  H    0.000008  -0.000003  -0.000159   0.009037  -0.038522   0.002732
    12  H    0.000007  -0.000008  -0.000036   0.008472   0.002732  -0.037570
    13  H    0.000615   0.000000  -0.000010   0.000003   0.000004   0.000037
    14  H   -0.000079   0.000000   0.000004   0.000023   0.000009   0.000079
    15  H    0.000381  -0.000011   0.000003  -0.000011  -0.000002  -0.000037
    16  H    0.007962   0.000000  -0.000032   0.000001   0.000001   0.000001
    17  H    0.006892  -0.000008   0.000041  -0.000003  -0.000001  -0.000002
    18  H    0.003565   0.000000  -0.000071   0.000000   0.000001   0.000000
             13         14         15         16         17         18
     1  O    0.000001   0.000000  -0.000010   0.000000  -0.000001   0.000000
     2  O    0.000000   0.000001   0.000004   0.000000   0.000004   0.000000
     3  C   -0.000042   0.000834   0.000081  -0.000173   0.000249   0.000953
     4  C   -0.012686  -0.002160  -0.011857  -0.012925  -0.013293  -0.002225
     5  C    0.000118  -0.000412   0.000128   0.000023   0.000022  -0.000003
     6  C    0.007291   0.003498   0.007723   0.000468   0.000596  -0.000062
     7  C    0.000615  -0.000079   0.000381   0.007962   0.006892   0.003565
     8  H    0.000000   0.000000  -0.000011   0.000000  -0.000008   0.000000
     9  H   -0.000010   0.000004   0.000003  -0.000032   0.000041  -0.000071
    10  H    0.000003   0.000023  -0.000011   0.000001  -0.000003   0.000000
    11  H    0.000004   0.000009  -0.000002   0.000001  -0.000001   0.000001
    12  H    0.000037   0.000079  -0.000037   0.000001  -0.000002   0.000000
    13  H    0.036849  -0.000803  -0.007155   0.001624  -0.000635  -0.000001
    14  H   -0.000803   0.003580  -0.000582  -0.000001   0.000000   0.000000
    15  H   -0.007155  -0.000582   0.032896  -0.000650   0.001659  -0.000003
    16  H    0.001624  -0.000001  -0.000650   0.037442  -0.008201  -0.000643
    17  H   -0.000635   0.000000   0.001659  -0.008201   0.039992  -0.000779
    18  H   -0.000001   0.000000  -0.000003  -0.000643  -0.000779   0.003353
 Mulliken atomic spin densities:
              1
     1  O    0.589327
     2  O   -0.001463
     3  C   -0.693142
     4  C    0.752405
     5  C    0.691268
     6  C   -0.093063
     7  C   -0.096316
     8  H   -0.002335
     9  H    0.044913
    10  H   -0.214185
    11  H   -0.043251
    12  H   -0.041431
    13  H    0.025212
    14  H    0.003990
    15  H    0.022558
    16  H    0.024896
    17  H    0.026534
    18  H    0.004083
 Sum of Mulliken atomic spin densities =   1.00000
 APT atomic charges:
              1
     1  O    0.551657
     2  O   -0.325931
     3  C   -0.263285
     4  C    0.107956
     5  C    0.865242
     6  C    0.084257
     7  C    0.125512
     8  H    0.248912
     9  H   -0.005658
    10  H   -1.009576
    11  H   -0.091442
    12  H   -0.081042
    13  H   -0.035548
    14  H   -0.019489
    15  H   -0.031456
    16  H   -0.046536
    17  H   -0.047316
    18  H   -0.026258
 Sum of APT charges=   0.00000
 APT Atomic charges with hydrogens summed into heavy atoms:
              1
     1  O   -0.457919
     2  O   -0.077019
     3  C   -0.268943
     4  C    0.107956
     5  C    0.692758
     6  C   -0.002236
     7  C    0.005403
     8  H    0.000000
     9  H    0.000000
    10  H    0.000000
    11  H    0.000000
    12  H    0.000000
    13  H    0.000000
    14  H    0.000000
    15  H    0.000000
    16  H    0.000000
    17  H    0.000000
    18  H    0.000000
 Sum of APT charges=   0.00000
 Electronic spatial extent (au):  <R**2>=           1202.4474
 Charge=              0.0000 electrons
 Dipole moment (field-independent basis, Debye):
    X=              2.9717    Y=             -0.1737    Z=              1.0089  Tot=              3.1431
 Quadrupole moment (field-independent basis, Debye-Ang):
   XX=            -56.0793   YY=            -40.9209   ZZ=            -43.9166
   XY=             -1.4440   XZ=             -2.1235   YZ=             -1.8574
 Traceless Quadrupole moment (field-independent basis, Debye-Ang):
   XX=             -9.1071   YY=              6.0514   ZZ=              3.0557
   XY=             -1.4440   XZ=             -2.1235   YZ=             -1.8574
 Octapole moment (field-independent basis, Debye-Ang**2):
  XXX=             91.1124  YYY=             -1.8203  ZZZ=              9.3336  XYY=              6.9511
  XXY=              4.5835  XXZ=             13.0425  XZZ=             16.2371  YZZ=              2.6679
  YYZ=              7.7133  XYZ=              6.9801
 Hexadecapole moment (field-independent basis, Debye-Ang**3):
 XXXX=          -1122.8581 YYYY=           -256.5890 ZZZZ=           -238.5974 XXXY=              3.2331
 XXXZ=            -82.7518 YYYX=             21.9527 YYYZ=            -17.6474 ZZZX=            -61.7030
 ZZZY=            -15.5079 XXYY=           -199.4995 XXZZ=           -209.5983 YYZZ=            -83.7859
 XXYZ=            -19.4089 YYXZ=            -25.5595 ZZXY=             -2.5459
 N-N= 3.026009217589D+02 E-N=-2.113308581692D+03  KE= 5.157686744114D+02
  Exact polarizability: 100.776   5.943  65.238   5.200  -1.453  57.329
 Approx polarizability:  61.040  -2.242  52.458   3.297  -0.556  50.437
                          Isotropic Fermi Contact Couplings
        Atom                 a.u.       MegaHertz       Gauss      10(-4) cm-1
     1  O(17)              0.11862     -71.90665     -25.65808     -23.98548
     2  O(17)              0.02282     -13.83394      -4.93629      -4.61450
     3  C(13)             -0.12466    -140.13813     -50.00477     -46.74505
     4  C(13)              0.13405     150.69530      53.77183      50.26654
     5  C(13)              0.16796     188.82272      67.37664      62.98448
     6  C(13)             -0.03071     -34.52787     -12.32040     -11.51726
     7  C(13)             -0.03199     -35.96471     -12.83310     -11.99654
     8  H(1)              -0.00119      -5.32941      -1.90167      -1.77770
     9  H(1)               0.01391      62.19525      22.19281      20.74610
    10  H(1)              -0.08630    -385.74362    -137.64291    -128.67022
    11  H(1)              -0.01498     -66.95550     -23.89139     -22.33395
    12  H(1)              -0.01363     -60.93651     -21.74366     -20.32623
    13  H(1)               0.01126      50.31432      17.95340      16.78305
    14  H(1)               0.00135       6.02661       2.15044       2.01026
    15  H(1)               0.01013      45.27924      16.15676      15.10353
    16  H(1)               0.01112      49.72205      17.74206      16.58549
    17  H(1)               0.01174      52.46755      18.72173      17.50129
    18  H(1)               0.00139       6.20439       2.21388       2.06956
 --------------------------------------------------------
       Center         ----  Spin Dipole Couplings  ----
                      3XX-RR        3YY-RR        3ZZ-RR
 --------------------------------------------------------
     1   Atom        1.352762     -0.453704     -0.899058
     2   Atom        0.187477     -0.034495     -0.152982
     3   Atom       -0.010620     -0.168525      0.179145
     4   Atom        0.030631      0.218140     -0.248770
     5   Atom        0.244284     -0.000735     -0.243549
     6   Atom        0.004991      0.002864     -0.007856
     7   Atom       -0.003413     -0.001522      0.004935
     8   Atom       -0.002148      0.015182     -0.013033
     9   Atom        0.022750      0.000712     -0.023462
    10   Atom        0.112070     -0.001736     -0.110335
    11   Atom       -0.010062     -0.011027      0.021089
    12   Atom       -0.017865     -0.000164      0.018029
    13   Atom       -0.002961     -0.002417      0.005378
    14   Atom       -0.001575     -0.002424      0.003999
    15   Atom       -0.001760     -0.006059      0.007819
    16   Atom        0.004485     -0.001494     -0.002991
    17   Atom        0.001724      0.003012     -0.004735
    18   Atom       -0.000985      0.000453      0.000532
 --------------------------------------------------------
                        XY            XZ            YZ
 --------------------------------------------------------
     1   Atom        1.349302     -0.880314     -0.410615
     2   Atom        0.267318     -0.000797     -0.151594
     3   Atom       -0.337980      0.119901      0.131007
     4   Atom        0.413429     -0.149154     -0.169890
     5   Atom        0.406648     -0.169581     -0.133821
     6   Atom       -0.001741     -0.002582     -0.000778
     7   Atom        0.005934     -0.000694      0.001492
     8   Atom       -0.010234      0.004142     -0.005357
     9   Atom       -0.016988      0.008344     -0.016606
    10   Atom        0.178303     -0.066350     -0.049475
    11   Atom        0.005641      0.019336     -0.036296
    12   Atom        0.019171      0.001026      0.031318
    13   Atom        0.000229      0.004033      0.003626
    14   Atom        0.000674      0.000737      0.003369
    15   Atom       -0.000792      0.001868      0.000383
    16   Atom       -0.006029     -0.003198      0.000862
    17   Atom       -0.006295     -0.000522      0.002622
    18   Atom       -0.001140     -0.004710      0.004259
 --------------------------------------------------------


 ---------------------------------------------------------------------------------
              Anisotropic Spin Dipole Couplings in Principal Axis System
 ---------------------------------------------------------------------------------

       Atom             a.u.   MegaHertz   Gauss  10(-4) cm-1        Axes

              Baa    -1.2316    89.118    31.800    29.727  0.4972 -0.4815  0.7217
     1 O(17)  Bbb    -1.1302    81.781    29.182    27.279 -0.1858  0.7534  0.6307
              Bcc     2.3618  -170.900   -60.981   -57.006  0.8475  0.4477 -0.2852
 
              Baa    -0.3163    22.886     8.166     7.634 -0.3620  0.6841  0.6333
     2 O(17)  Bbb    -0.0639     4.621     1.649     1.541  0.4779 -0.4471  0.7561
              Bcc     0.3801   -27.507    -9.815    -9.175  0.8004  0.5763 -0.1651
 
              Baa    -0.4840   -64.947   -23.175   -21.664  0.6038  0.7541 -0.2582
     3 C(13)  Bbb     0.2223    29.833    10.645     9.951 -0.1018  0.3942  0.9134
              Bcc     0.2617    35.114    12.529    11.713  0.7906 -0.5252  0.3148
 
              Baa    -0.3150   -42.271   -15.084   -14.100  0.5617 -0.1781  0.8080
     4 C(13)  Bbb    -0.2928   -39.297   -14.022   -13.108 -0.5636  0.6326  0.5312
              Bcc     0.6079    81.568    29.106    27.208  0.6057  0.7537 -0.2550
 
              Baa    -0.3072   -41.229   -14.712   -13.753 -0.3720  0.7388  0.5619
     5 C(13)  Bbb    -0.2944   -39.506   -14.097   -13.178  0.5084 -0.3443  0.7893
              Bcc     0.6016    80.735    28.808    26.930  0.7766  0.5793 -0.2475
 
              Baa    -0.0085    -1.136    -0.405    -0.379  0.1998  0.0977  0.9750
     6 C(13)  Bbb     0.0022     0.299     0.107     0.100  0.4045  0.8980 -0.1729
              Bcc     0.0062     0.836     0.298     0.279  0.8924 -0.4289 -0.1399
 
              Baa    -0.0086    -1.160    -0.414    -0.387  0.7521 -0.6499  0.1099
     7 C(13)  Bbb     0.0033     0.441     0.157     0.147  0.6415  0.6834 -0.3485
              Bcc     0.0054     0.719     0.256     0.240  0.1514  0.3326  0.9309
 
              Baa    -0.0146    -7.785    -2.778    -2.597 -0.2486  0.0881  0.9646
     8 H(1)   Bbb    -0.0066    -3.528    -1.259    -1.177  0.8718  0.4544  0.1832
              Bcc     0.0212    11.313     4.037     3.773 -0.4222  0.8864 -0.1898
 
              Baa    -0.0319   -17.029    -6.076    -5.680  0.0059  0.4560  0.8900
     9 H(1)   Bbb    -0.0041    -2.214    -0.790    -0.738  0.5754  0.7264 -0.3760
              Bcc     0.0361    19.242     6.866     6.419  0.8179 -0.5143  0.2581
 
              Baa    -0.1322   -70.525   -25.165   -23.525 -0.5349  0.8153  0.2217
    10 H(1)   Bbb    -0.1286   -68.618   -24.485   -22.889  0.3052 -0.0582  0.9505
              Bcc     0.2608   139.143    49.650    46.413  0.7879  0.5761 -0.2177
 
              Baa    -0.0424   -22.600    -8.064    -7.538 -0.4490  0.7097  0.5429
    11 H(1)   Bbb    -0.0055    -2.930    -1.045    -0.977  0.8630  0.5019  0.0576
              Bcc     0.0478    25.530     9.110     8.516  0.2316 -0.4943  0.8378
 
              Baa    -0.0366   -19.521    -6.966    -6.511 -0.6559  0.6601 -0.3662
    12 H(1)   Bbb    -0.0075    -4.025    -1.436    -1.343  0.7265  0.4202 -0.5437
              Bcc     0.0441    23.546     8.402     7.854  0.2050  0.6227  0.7551
 
              Baa    -0.0053    -2.820    -1.006    -0.940  0.7318  0.5112 -0.4506
    13 H(1)   Bbb    -0.0029    -1.526    -0.545    -0.509 -0.5963  0.8005 -0.0603
              Bcc     0.0081     4.346     1.551     1.450  0.3299  0.3129  0.8907
 
              Baa    -0.0039    -2.089    -0.745    -0.697 -0.1450  0.9152 -0.3761
    14 H(1)   Bbb    -0.0017    -0.881    -0.314    -0.294  0.9807  0.0826 -0.1772
              Bcc     0.0056     2.970     1.060     0.991  0.1311  0.3945  0.9095
 
              Baa    -0.0062    -3.328    -1.188    -1.110  0.1953  0.9793 -0.0526
    15 H(1)   Bbb    -0.0019    -1.033    -0.369    -0.345  0.9634 -0.2016 -0.1766
              Bcc     0.0082     4.361     1.556     1.455  0.1835  0.0162  0.9829
 
              Baa    -0.0057    -3.038    -1.084    -1.013  0.5563  0.7100  0.4318
    16 H(1)   Bbb    -0.0034    -1.798    -0.642    -0.600 -0.0323 -0.5008  0.8650
              Bcc     0.0091     4.836     1.726     1.613  0.8304 -0.4951 -0.2557
 
              Baa    -0.0060    -3.206    -1.144    -1.069 -0.3227 -0.4648  0.8245
    17 H(1)   Bbb    -0.0031    -1.639    -0.585    -0.547  0.6900  0.4808  0.5411
              Bcc     0.0091     4.845     1.729     1.616 -0.6479  0.7435  0.1656
 
              Baa    -0.0058    -3.075    -1.097    -1.026  0.6053 -0.3714  0.7040
    18 H(1)   Bbb    -0.0013    -0.690    -0.246    -0.230  0.6329  0.7610 -0.1427
              Bcc     0.0071     3.766     1.344     1.256 -0.4828  0.5320  0.6957
 

 ---------------------------------------------------------------------------------

 No NMR shielding tensors so no spin-rotation constants.
 Leave Link  601 at Mon Apr 30 12:29:54 2018, MaxMem=  671088640 cpu:      16.3
 (Enter /shared/apps/gaussian/G09_LINUX_LINDA/g09/l701.exe)
 Compute integral second derivatives.
 ... and contract with generalized density number  0.
 Leave Link  701 at Mon Apr 30 12:29:55 2018, MaxMem=  671088640 cpu:       9.0
 (Enter /shared/apps/gaussian/G09_LINUX_LINDA/g09/l702.exe)
 L702 exits ... SP integral derivatives will be done elsewhere.
 Leave Link  702 at Mon Apr 30 12:29:55 2018, MaxMem=  671088640 cpu:       0.3
 (Enter /shared/apps/gaussian/G09_LINUX_LINDA/g09/l703.exe)
 Compute integral second derivatives, UseDBF=F ICtDFT=           0.
 Integral derivatives from FoFDir, PRISM(SPDF).
 Calling FoFJK, ICntrl=    100127 FMM=F ISym2X=0 I1Cent= 0 IOpClX= 1 NMat=1 NMatS=1 NMatT=0.
 FoFCou: FMM=F IPFlag=           0 FMFlag=      100000 FMFlg1=         800
         NFxFlg=           0 DoJE=F BraDBF=F KetDBF=F FulRan=T
         Omega=  0.000000  0.000000  1.000000  0.000000  0.000000 ICntrl=  100127 IOpCl=  1
         NMat0=    1 NMatS0=    1 NMatT0=    0 NMatD0=    1 NMtDS0=    0 NMtDT0=    0
         I1Cent=           0 NGrid=           0.
 Symmetry not used in FoFCou.
 Leave Link  703 at Mon Apr 30 12:29:59 2018, MaxMem=  671088640 cpu:      35.8
 (Enter /shared/apps/gaussian/G09_LINUX_LINDA/g09/l716.exe)
 Dipole        = 1.16917183D+00-6.83347008D-02 3.96912934D-01
 Polarizability= 1.00776280D+02 5.94318695D+00 6.52377274D+01
                 5.19990842D+00-1.45319293D+00 5.73288749D+01
 HyperPolar    =-5.15705332D+02 7.48874106D+01 2.68071982D+01
                 8.06307591D+00 1.14439384D+01 2.12546878D+01
                 2.04546061D+01 2.39512422D+00 1.41718333D+01
                -5.78632051D+01
 -------------------------------------------------------------------
 Center     Atomic                   Forces (Hartrees/Bohr)
 Number     Number              X              Y              Z
 -------------------------------------------------------------------
      1        8          -0.000003716    0.000004458   -0.000002720
      2        8           0.000008521    0.000001290   -0.000002103
      3        6           0.000000197   -0.000002309    0.000003385
      4        6          -0.000000920   -0.000000292   -0.000002172
      5        6          -0.000007008    0.000000564   -0.000001756
      6        6           0.000000014    0.000000492   -0.000000317
      7        6          -0.000000101   -0.000000251    0.000000161
      8        1          -0.000000347    0.000000064    0.000000526
      9        1          -0.000001316   -0.000002610   -0.000001534
     10        1           0.000005136   -0.000001389    0.000006462
     11        1           0.000000579    0.000000664   -0.000000407
     12        1          -0.000000699   -0.000001108    0.000000836
     13        1           0.000000036   -0.000000188    0.000000060
     14        1           0.000000097    0.000000394   -0.000000182
     15        1          -0.000000136   -0.000000055   -0.000000175
     16        1          -0.000000037    0.000000183   -0.000000025
     17        1          -0.000000220    0.000000202   -0.000000171
     18        1          -0.000000082   -0.000000108    0.000000132
 -------------------------------------------------------------------
 Cartesian Forces:  Max     0.000008521 RMS     0.000002279
 Z-matrix is all fixed cartesians, so copy forces.
 Leave Link  716 at Mon Apr 30 12:29:59 2018, MaxMem=  671088640 cpu:       0.5
 (Enter /shared/apps/gaussian/G09_LINUX_LINDA/g09/l123.exe)
 IRC-IRC-IRC-IRC-IRC-IRC-IRC-IRC-IRC-IRC-IRC-IRC-IRC-IRC-IRC-IRC-IRC-IRC
          ******** Start new reaction path calculation ********
 Current Structure is TS -> diagonalize the Hessian.
 Supplied step size of   0.1000 bohr.
    Integration on MW PES will use step size of   0.1041 sqrt(amu)*bohr.
 Point Number:   0          Path Number:   1
 Calculating another point on the path.
 Point Number  1 in FORWARD path direction.
 Using LQA Reaction Path Following.
 IRC-IRC-IRC-IRC-IRC-IRC-IRC-IRC-IRC-IRC-IRC-IRC-IRC-IRC-IRC-IRC-IRC-IRC
 Leave Link  123 at Mon Apr 30 12:30:00 2018, MaxMem=  671088640 cpu:       5.5
 (Enter /shared/apps/gaussian/G09_LINUX_LINDA/g09/l202.exe)
                          Input orientation:                          
 ---------------------------------------------------------------------
 Center     Atomic      Atomic             Coordinates (Angstroms)
 Number     Number       Type             X           Y           Z
 ---------------------------------------------------------------------
      1          8           0       -2.549127    0.021807    0.129936
      2          8           0       -2.235263   -1.149567   -0.502484
      3          6           0        0.556836    0.493075   -0.722473
      4          6           0        1.479984    0.020539    0.161120
      5          6           0       -0.513260    1.439630   -0.457930
      6          6           0        1.567871    0.435605    1.607627
      7          6           0        2.522403   -0.976759   -0.277871
      8          1           0       -1.787933   -1.654842    0.165458
      9          1           0        0.587296    0.097491   -1.723612
     10          1           0       -1.625994    0.712547   -0.127621
     11          1           0       -0.887290    1.961708   -1.325603
     12          1           0       -0.414998    2.084021    0.401111
     13          1           0        2.524319    0.912758    1.809034
     14          1           0        0.784405    1.117945    1.906587
     15          1           0        1.510653   -0.436544    2.254666
     16          1           0        3.524064   -0.579350   -0.129804
     17          1           0        2.457625   -1.890473    0.309048
     18          1           0        2.416620   -1.240406   -1.323399
 ---------------------------------------------------------------------
                    Distance matrix (angstroms):
                    1          2          3          4          5
     1  O    0.000000
     2  O    1.367693   0.000000
     3  C    3.255104   3.246919   0.000000
     4  C    4.029232   3.951275   1.362435   0.000000
     5  C    2.549620   3.109859   1.452948   2.523899   0.000000
     6  C    4.393686   4.629165   2.540642   1.507443   3.099306
     7  C    5.184965   4.766099   2.494301   1.507964   3.884149
     8  H    1.841692   0.949502   3.301502   3.672357   3.404286
     9  H    3.643970   3.318605   1.076890   2.086871   2.148142
    10  H    1.181369   1.994793   2.273052   3.195206   1.369646
    11  H    2.939985   3.489210   2.146194   3.403302   1.079499
    12  H    2.980061   3.819154   2.176698   2.811851   1.078354
    13  H    5.417842   5.678901   3.233519   2.145299   3.826696
    14  H    3.933248   4.479245   2.711864   2.175956   2.716313
    15  H    4.605038   4.705546   3.261490   2.143081   3.869681
    16  H    6.108396   5.799473   3.210263   2.150062   4.525918
    17  H    5.362505   4.819825   3.218437   2.151658   4.528135
    18  H    5.325787   4.724634   2.612443   2.161265   4.063967
                    6          7          8          9         10
     6  C    0.000000
     7  C    2.541851   0.000000
     8  H    4.208473   4.385811   0.000000
     9  H    3.488983   2.643638   3.504422   0.000000
    10  H    3.645347   4.481688   2.390952   2.797165   0.000000
    11  H    4.118330   4.621508   4.014207   2.410004   1.881821
    12  H    2.846880   4.296245   3.989935   3.076580   1.904471
    13  H    1.087672   2.815217   5.281044   4.110511   4.584300
    14  H    1.081103   3.490026   4.163749   3.776046   3.179996
    15  H    1.087464   2.780146   4.090197   4.118795   4.102957
    16  H    2.806331   1.087742   5.427816   3.409244   5.309623
    17  H    2.808667   1.087908   4.254515   3.403210   4.862338
    18  H    3.481422   1.083434   4.479589   2.301426   4.646142
                   11         12         13         14         15
    11  H    0.000000
    12  H    1.794314   0.000000
    13  H    4.750296   3.463190   0.000000
    14  H    3.735445   2.153678   1.754684   0.000000
    15  H    4.931538   3.673832   1.745485   1.750723   0.000000
    16  H    5.229431   4.784519   2.642909   3.812274   3.124086
    17  H    5.357223   4.904798   3.180017   3.795046   2.606932
    18  H    4.601016   4.695083   3.802610   4.319578   3.777502
                   16         17         18
    16  H    0.000000
    17  H    1.746119   0.000000
    18  H    1.757298   1.757599   0.000000
 Symmetry turned off by external request.
 Stoichiometry    C5H11O2(2)
 Framework group  C1[X(C5H11O2)]
 Deg. of freedom    48
 Full point group                 C1      NOp   1
 Rotational constants (GHZ):      3.6011211      1.1893688      1.1105729
 Leave Link  202 at Mon Apr 30 12:30:00 2018, MaxMem=  671088640 cpu:       0.7
 (Enter /shared/apps/gaussian/G09_LINUX_LINDA/g09/l301.exe)
 Standard basis: 6-31G(d) (6D, 7F)
 Ernie: Thresh=  0.10000D-02 Tol=  0.10000D-05 Strict=F.
 Integral buffers will be    131072 words long.
 Raffenetti 2 integral format.
 Two-electron integral symmetry is turned off.
   127 basis functions,   240 primitive gaussians,   127 cartesian basis functions
    29 alpha electrons       28 beta electrons
       nuclear repulsion energy       302.6358775848 Hartrees.
 IExCor=    0 DFT=F Ex=HF Corr=None ExCW=0 ScaHFX=  1.000000
 ScaDFX=  1.000000  1.000000  1.000000  1.000000 ScalE2=  1.000000  1.000000
 IRadAn=      0 IRanWt=     -1 IRanGd=            0 ICorTp=0
 NAtoms=   18 NActive=   18 NUniq=   18 SFac= 1.00D+00 NAtFMM=   50 NAOKFM=F Big=F
 Leave Link  301 at Mon Apr 30 12:30:00 2018, MaxMem=  671088640 cpu:       0.9
 (Enter /shared/apps/gaussian/G09_LINUX_LINDA/g09/l302.exe)
 NPDir=0 NMtPBC=     1 NCelOv=     1 NCel=       1 NClECP=     1 NCelD=      1
         NCelK=      1 NCelE2=     1 NClLst=     1 CellRange=     0.0.
 One-electron integrals computed using PRISM.
 NBasis=   127 RedAO= T  NBF=   127
 NBsUse=   127 1.00D-06 NBFU=   127
 Leave Link  302 at Mon Apr 30 12:30:01 2018, MaxMem=  671088640 cpu:       6.9
 (Enter /shared/apps/gaussian/G09_LINUX_LINDA/g09/l303.exe)
 DipDrv:  MaxL=1.
 Leave Link  303 at Mon Apr 30 12:30:01 2018, MaxMem=  671088640 cpu:       1.3
 (Enter /shared/apps/gaussian/G09_LINUX_LINDA/g09/l401.exe)
 Initial guess read from the read-write file.
 B after Tr=     0.000000    0.000000    0.000000
         Rot=    1.000000    0.000000    0.000000    0.000000 Ang=   0.00 deg.
 Guess basis will be translated and rotated to current coordinates.
 Initial guess <Sx>= 0.0000 <Sy>= 0.0000 <Sz>= 0.5000 <S**2>= 1.0010 S= 0.6185
 Generating alternative initial guess.
 Harris functional with IExCor=  205 diagonalized for initial guess.
 ExpMin= 1.61D-01 ExpMax= 5.48D+03 ExpMxC= 8.25D+02 IAcc=1 IRadAn=         1 AccDes= 0.00D+00
 HarFok:  IExCor=  205 AccDes= 0.00D+00 IRadAn=         1 IDoV= 1
 ScaDFX=  1.000000  1.000000  1.000000  1.000000
 FoFCou: FMM=F IPFlag=           0 FMFlag=      100000 FMFlg1=           0
         NFxFlg=           0 DoJE=T BraDBF=F KetDBF=T FulRan=T
         Omega=  0.000000  0.000000  1.000000  0.000000  0.000000 ICntrl=     500 IOpCl=  0
         NMat0=    1 NMatS0=    1 NMatT0=    0 NMatD0=    1 NMtDS0=    0 NMtDT0=    0
         I1Cent=           4 NGrid=           0.
 Symmetry not used in FoFCou.
 Harris En= -345.811822213346    
 Leave Link  401 at Mon Apr 30 12:30:05 2018, MaxMem=  671088640 cpu:      33.4
 (Enter /shared/apps/gaussian/G09_LINUX_LINDA/g09/l502.exe)
 UHF open shell SCF:
 Requested convergence on RMS density matrix=1.00D-08 within 128 cycles.
 Requested convergence on MAX density matrix=1.00D-06.
 Requested convergence on             energy=1.00D-06.
 No special actions if energy rises.
 Using DIIS extrapolation, IDIIS=  1040.
 Two-electron integral symmetry not used.
 Keep R1 and R2 ints in memory in canonical form, NReq=67190916.
 IEnd=       69871 IEndB=       69871 NGot=   671088640 MDV=   604979126
 LenX=   604979126 LenY=   604962556
 Symmetry not used in FoFDir.
 MinBra= 0 MaxBra= 2 Meth= 1.
 IRaf=       0 NMat=   1 IRICut=       1 DoRegI=T DoRafI=F ISym2E= 0 JSym2E=0.

 Cycle   1  Pass 1  IDiag  1:
 E= -345.257280177866    
 DIIS: error= 2.81D-03 at cycle   1 NSaved=   1.
 NSaved= 1 IEnMin= 1 EnMin= -345.257280177866     IErMin= 1 ErrMin= 2.81D-03
 ErrMax= 2.81D-03 EMaxC= 1.00D-01 BMatC= 3.35D-03 BMatP= 3.35D-03
 IDIUse=3 WtCom= 9.72D-01 WtEn= 2.81D-02
 Coeff-Com:  0.100D+01
 Coeff-En:   0.100D+01
 Coeff:      0.100D+01
 Gap=     0.524 Goal=   None    Shift=    0.000
 Gap=     0.435 Goal=   None    Shift=    0.000
 GapD=    0.435 DampG=2.000 DampE=1.000 DampFc=2.0000 IDamp=-1.
 RMSDP=3.27D-04 MaxDP=9.16D-03              OVMax= 2.20D-02

 Cycle   2  Pass 1  IDiag  1:
 E= -345.259208576297     Delta-E=       -0.001928398431 Rises=F Damp=F
 DIIS: error= 1.44D-03 at cycle   2 NSaved=   2.
 NSaved= 2 IEnMin= 2 EnMin= -345.259208576297     IErMin= 2 ErrMin= 1.44D-03
 ErrMax= 1.44D-03 EMaxC= 1.00D-01 BMatC= 1.04D-03 BMatP= 3.35D-03
 IDIUse=3 WtCom= 9.86D-01 WtEn= 1.44D-02
 Coeff-Com:  0.435D-01 0.957D+00
 Coeff-En:   0.000D+00 0.100D+01
 Coeff:      0.429D-01 0.957D+00
 Gap=     0.523 Goal=   None    Shift=    0.000
 Gap=     0.432 Goal=   None    Shift=    0.000
 RMSDP=1.87D-04 MaxDP=5.40D-03 DE=-1.93D-03 OVMax= 1.36D-02

 Cycle   3  Pass 1  IDiag  1:
 E= -345.259914277512     Delta-E=       -0.000705701215 Rises=F Damp=F
 DIIS: error= 1.45D-03 at cycle   3 NSaved=   3.
 NSaved= 3 IEnMin= 3 EnMin= -345.259914277512     IErMin= 2 ErrMin= 1.44D-03
 ErrMax= 1.45D-03 EMaxC= 1.00D-01 BMatC= 3.93D-04 BMatP= 1.04D-03
 IDIUse=3 WtCom= 9.85D-01 WtEn= 1.45D-02
 Coeff-Com: -0.174D+00 0.479D-01 0.113D+01
 Coeff-En:   0.000D+00 0.000D+00 0.100D+01
 Coeff:     -0.171D+00 0.472D-01 0.112D+01
[...]
     6  C   -0.512913
     7  C   -0.504149
     8  H    0.470779
     9  H    0.173123
    10  H    0.238805
    11  H    0.165620
    12  H    0.163931
    13  H    0.169887
    14  H    0.176596
    15  H    0.160425
    16  H    0.165277
    17  H    0.155794
    18  H    0.170906
 Sum of Mulliken atomic charges =   0.00000
 Mulliken charges with hydrogens summed into heavy atoms:
              1
     1  O   -0.103273
     2  O    0.079933
     3  C   -0.047587
     4  C    0.053042
     5  C    0.036062
     6  C   -0.006005
     7  C   -0.012172
 Sum of Mulliken charges with hydrogens summed into heavy atoms =   0.00000
          Atomic-Atomic Spin Densities.
              1          2          3          4          5          6
     1  O    1.066277  -0.105534   0.001513   0.000314  -0.017775  -0.000012
     2  O   -0.105534   0.170134  -0.001028  -0.000213   0.004387   0.000004
     3  C    0.001513  -0.001028  -0.271064   0.005484   0.004362   0.000309
     4  C    0.000314  -0.000213   0.005484   0.274466  -0.002041  -0.007914
     5  C   -0.017775   0.004387   0.004362  -0.002041   0.137658   0.000069
     6  C   -0.000012   0.000004   0.000309  -0.007914   0.000069  -0.029041
     7  C    0.000001  -0.000001   0.000058  -0.007284   0.000005   0.000648
     8  H    0.001018  -0.002426  -0.000359   0.000137   0.000052  -0.000005
     9  H   -0.000056   0.000053   0.002118  -0.000425  -0.000507   0.000021
    10  H   -0.035812   0.004374   0.009132   0.000123   0.010084  -0.000042
    11  H    0.000926  -0.000182   0.001685  -0.000039  -0.005916  -0.000006
    12  H    0.000493  -0.000078   0.001105  -0.000199  -0.004704   0.000084
    13  H    0.000000   0.000000  -0.000016  -0.004238   0.000031   0.002141
    14  H    0.000006   0.000000   0.000281  -0.000732  -0.000119   0.001131
    15  H   -0.000004   0.000002   0.000075  -0.004018   0.000013   0.002330
    16  H    0.000000   0.000000   0.000027  -0.004282   0.000005   0.000144
    17  H    0.000000   0.000002   0.000133  -0.004251   0.000001   0.000167
    18  H    0.000000   0.000000   0.000328  -0.000765  -0.000001  -0.000021
              7          8          9         10         11         12
     1  O    0.000001   0.001018  -0.000056  -0.035812   0.000926   0.000493
     2  O   -0.000001  -0.002426   0.000053   0.004374  -0.000182  -0.000078
     3  C    0.000058  -0.000359   0.002118   0.009132   0.001685   0.001105
     4  C   -0.007284   0.000137  -0.000425   0.000123  -0.000039  -0.000199
     5  C    0.000005   0.000052  -0.000507   0.010084  -0.005916  -0.004704
     6  C    0.000648  -0.000005   0.000021  -0.000042  -0.000006   0.000084
     7  C   -0.029840  -0.000004  -0.000006   0.000010   0.000002   0.000002
     8  H   -0.000004  -0.007480  -0.000006   0.000227  -0.000001  -0.000005
     9  H   -0.000006  -0.000006   0.016051  -0.000070  -0.000133   0.000004
    10  H    0.000010   0.000227  -0.000070  -0.066139   0.003966   0.004002
    11  H    0.000002  -0.000001  -0.000133   0.003966  -0.008771   0.000197
    12  H    0.000002  -0.000005   0.000004   0.004002   0.000197  -0.009040
    13  H    0.000192   0.000000  -0.000004   0.000006   0.000001  -0.000002
    14  H   -0.000024   0.000000   0.000001   0.000015   0.000002   0.000023
    15  H    0.000142  -0.000005   0.000001  -0.000012  -0.000001  -0.000003
    16  H    0.002393   0.000000  -0.000010   0.000001   0.000000   0.000000
    17  H    0.002095  -0.000003   0.000018  -0.000003   0.000000   0.000000
    18  H    0.001154   0.000000  -0.000030   0.000000   0.000000   0.000000
             13         14         15         16         17         18
     1  O    0.000000   0.000006  -0.000004   0.000000   0.000000   0.000000
     2  O    0.000000   0.000000   0.000002   0.000000   0.000002   0.000000
     3  C   -0.000016   0.000281   0.000075   0.000027   0.000133   0.000328
     4  C   -0.004238  -0.000732  -0.004018  -0.004282  -0.004251  -0.000765
     5  C    0.000031  -0.000119   0.000013   0.000005   0.000001  -0.000001
     6  C    0.002141   0.001131   0.002330   0.000144   0.000167  -0.000021
     7  C    0.000192  -0.000024   0.000142   0.002393   0.002095   0.001154
     8  H    0.000000   0.000000  -0.000005   0.000000  -0.000003   0.000000
     9  H   -0.000004   0.000001   0.000001  -0.000010   0.000018  -0.000030
    10  H    0.000006   0.000015  -0.000012   0.000001  -0.000003   0.000000
    11  H    0.000001   0.000002  -0.000001   0.000000   0.000000   0.000000
    12  H   -0.000002   0.000023  -0.000003   0.000000   0.000000   0.000000
    13  H    0.012498  -0.000230  -0.002510   0.000563  -0.000216   0.000000
    14  H   -0.000230   0.001166  -0.000222   0.000000  -0.000001   0.000000
    15  H   -0.002510  -0.000222   0.011218  -0.000226   0.000565  -0.000001
    16  H    0.000563   0.000000  -0.000226   0.012130  -0.002621  -0.000218
    17  H   -0.000216  -0.000001   0.000565  -0.002621   0.012385  -0.000244
    18  H    0.000000   0.000000  -0.000001  -0.000218  -0.000244   0.001105
 Mulliken atomic spin densities:
              1
     1  O    0.911356
     2  O    0.069493
     3  C   -0.245856
     4  C    0.244122
     5  C    0.125603
     6  C   -0.029991
     7  C   -0.030456
     8  H   -0.008861
     9  H    0.017020
    10  H   -0.070139
    11  H   -0.008271
    12  H   -0.008121
    13  H    0.008215
    14  H    0.001299
    15  H    0.007345
    16  H    0.007907
    17  H    0.008027
    18  H    0.001308
 Sum of Mulliken atomic spin densities =   1.00000
 APT atomic charges:
              1
     1  O    0.073828
     2  O   -0.368584
     3  C   -0.057623
     4  C    0.046908
     5  C    0.135383
     6  C    0.109301
     7  C    0.136002
     8  H    0.312100
     9  H   -0.011638
    10  H   -0.037971
    11  H   -0.046273
    12  H   -0.045353
    13  H   -0.041377
    14  H   -0.022275
    15  H   -0.043451
    16  H   -0.050992
    17  H   -0.056586
    18  H   -0.031401
 Sum of APT charges=   0.00000
 APT Atomic charges with hydrogens summed into heavy atoms:
              1
     1  O    0.073828
     2  O   -0.056484
     3  C   -0.069260
     4  C    0.046908
     5  C    0.005787
     6  C    0.002198
     7  C   -0.002977
     8  H    0.000000
     9  H    0.000000
    10  H    0.000000
    11  H    0.000000
    12  H    0.000000
    13  H    0.000000
    14  H    0.000000
    15  H    0.000000
    16  H    0.000000
    17  H    0.000000
    18  H    0.000000
 Sum of APT charges=   0.00000
 Electronic spatial extent (au):  <R**2>=           1157.2088
 Charge=              0.0000 electrons
 Dipole moment (field-independent basis, Debye):
    X=              0.8922    Y=             -1.3084    Z=              1.1798  Tot=              1.9748
 Quadrupole moment (field-independent basis, Debye-Ang):
   XX=            -48.4152   YY=            -41.9075   ZZ=            -44.2137
   XY=              0.6625   XZ=             -1.6230   YZ=             -1.3371
 Traceless Quadrupole moment (field-independent basis, Debye-Ang):
   XX=             -3.5697   YY=              2.9380   ZZ=              0.6318
   XY=              0.6625   XZ=             -1.6230   YZ=             -1.3371
 Octapole moment (field-independent basis, Debye-Ang**2):
  XXX=            -20.8491  YYY=            -15.4598  ZZZ=             -6.0608  XYY=            -17.1937
  XXY=             -4.0063  XXZ=              5.7995  XZZ=            -10.0663  YZZ=             -2.2475
  YYZ=              2.6630  XYZ=              4.7398
 Hexadecapole moment (field-independent basis, Debye-Ang**3):
 XXXX=           -977.1421 YYYY=           -270.6108 ZZZZ=           -241.2766 XXXY=             16.0863
 XXXZ=            -65.3288 YYYX=             21.3600 YYYZ=            -14.7137 ZZZX=            -59.9117
 ZZZY=            -13.1426 XXYY=           -205.3646 XXZZ=           -203.3250 YYZZ=            -85.0214
 XXYZ=             -9.6542 YYXZ=            -22.2416 ZZXY=              0.6485
 N-N= 3.025287570445D+02 E-N=-2.112758666550D+03  KE= 5.157985764560D+02
  Exact polarizability:  66.142  -9.911  57.483   9.309  -0.964  59.024
 Approx polarizability:  52.283  -6.620  49.954   6.400  -0.598  52.297
                          Isotropic Fermi Contact Couplings
        Atom                 a.u.       MegaHertz       Gauss      10(-4) cm-1
     1  O(17)              0.17898    -108.49925     -38.71523     -36.19145
     2  O(17)              0.06462     -39.17228     -13.97764     -13.06647
     3  C(13)             -0.04258     -47.86696     -17.08012     -15.96670
     4  C(13)              0.04324      48.61081      17.34554      16.21482
     5  C(13)              0.04525      50.87227      18.15249      16.96916
     6  C(13)             -0.01005     -11.29362      -4.02984      -3.76714
     7  C(13)             -0.01023     -11.49917      -4.10319      -3.83571
     8  H(1)              -0.00473     -21.13714      -7.54226      -7.05059
     9  H(1)               0.00518      23.14859       8.25999       7.72154
    10  H(1)              -0.01499     -67.02537     -23.91632     -22.35726
    11  H(1)              -0.00330     -14.74556      -5.26158      -4.91859
    12  H(1)              -0.00300     -13.42085      -4.78889      -4.47671
    13  H(1)               0.00361      16.13533       5.75749       5.38217
    14  H(1)               0.00045       1.99845       0.71310       0.66661
    15  H(1)               0.00325      14.51241       5.17839       4.84082
    16  H(1)               0.00348      15.53569       5.54352       5.18215
    17  H(1)               0.00350      15.65808       5.58719       5.22297
    18  H(1)               0.00045       2.02938       0.72413       0.67693
 --------------------------------------------------------
       Center         ----  Spin Dipole Couplings  ----
                      3XX-RR        3YY-RR        3ZZ-RR
 --------------------------------------------------------
     1   Atom        2.067771     -0.747256     -1.320515
     2   Atom        0.500325     -0.192118     -0.308207
     3   Atom       -0.006145     -0.060383      0.066529
     4   Atom        0.014701      0.066154     -0.080855
     5   Atom        0.058447     -0.012167     -0.046279
     6   Atom        0.003718      0.000102     -0.003821
     7   Atom        0.000197     -0.001504      0.001307
     8   Atom       -0.003246      0.017593     -0.014348
     9   Atom        0.011306     -0.001375     -0.009931
    10   Atom        0.043355      0.008085     -0.051440
    11   Atom       -0.003043     -0.000137      0.003180
    12   Atom       -0.000010      0.002252     -0.002242
    13   Atom       -0.000050     -0.001087      0.001137
    14   Atom        0.001661     -0.001470     -0.000191
    15   Atom        0.001031     -0.002911      0.001880
    16   Atom        0.002010     -0.000801     -0.001209
    17   Atom        0.001809      0.000285     -0.002095
    18   Atom        0.000845     -0.000689     -0.000156
 --------------------------------------------------------
                        XY            XZ            YZ
 --------------------------------------------------------
     1   Atom        1.980648     -1.309404     -0.636003
     2   Atom        0.464367     -0.228213     -0.252624
     3   Atom       -0.124573      0.046140      0.048287
     4   Atom        0.132738     -0.048544     -0.051855
     5   Atom        0.069534     -0.033513     -0.022038
     6   Atom       -0.000157     -0.000193      0.000131
     7   Atom        0.001837     -0.000422      0.000699
     8   Atom       -0.027277      0.014127     -0.020518
     9   Atom       -0.005164      0.000545     -0.007273
    10   Atom        0.083267     -0.027822     -0.022571
    11   Atom        0.006461     -0.001638     -0.010064
    12   Atom        0.009413      0.002630      0.005398
    13   Atom        0.000442      0.001481      0.001288
    14   Atom        0.001549      0.001660      0.001828
    15   Atom       -0.000294      0.001725      0.000313
    16   Atom       -0.001799     -0.001169      0.000328
    17   Atom       -0.002383     -0.000121      0.000984
    18   Atom       -0.000295     -0.001851      0.001317
 --------------------------------------------------------


 ---------------------------------------------------------------------------------
              Anisotropic Spin Dipole Couplings in Principal Axis System
 ---------------------------------------------------------------------------------

       Atom             a.u.   MegaHertz   Gauss  10(-4) cm-1        Axes

              Baa    -1.7980   130.098    46.422    43.396  0.5145 -0.5977  0.6148
     1 O(17)  Bbb    -1.7290   125.112    44.643    41.733 -0.0972  0.6718  0.7344
              Bcc     3.5270  -255.210   -91.065   -85.129  0.8520  0.4376 -0.2875
 
              Baa    -0.5313    38.445    13.718    12.824 -0.1912  0.7411  0.6436
     2 O(17)  Bbb    -0.2920    21.126     7.538     7.047  0.4951 -0.4933  0.7152
              Bcc     0.8233   -59.571   -21.256   -19.871  0.8475  0.4554 -0.2726
 
              Baa    -0.1788   -23.995    -8.562    -8.004  0.6097  0.7481 -0.2619
     3 C(13)  Bbb     0.0821    11.022     3.933     3.677 -0.1680  0.4449  0.8797
              Bcc     0.0967    12.973     4.629     4.327  0.7746 -0.4924  0.3969
 
              Baa    -0.1018   -13.660    -4.874    -4.557  0.5383 -0.1707  0.8253
     4 C(13)  Bbb    -0.0921   -12.363    -4.411    -4.124 -0.5718  0.6454  0.5065
              Bcc     0.1939    26.023     9.286     8.680  0.6191  0.7445 -0.2499
 
              Baa    -0.0571    -7.665    -2.735    -2.557 -0.0612  0.5140  0.8556
     5 C(13)  Bbb    -0.0542    -7.273    -2.595    -2.426 -0.5618  0.6908 -0.4552
              Bcc     0.1113    14.938     5.330     4.983  0.8250  0.5085 -0.2465
 
              Baa    -0.0038    -0.514    -0.183    -0.171  0.0249 -0.0324  0.9992
     6 C(13)  Bbb     0.0001     0.013     0.005     0.004  0.0451  0.9985  0.0312
              Bcc     0.0037     0.501     0.179     0.167  0.9987 -0.0442 -0.0263
 
              Baa    -0.0028    -0.381    -0.136    -0.127 -0.5276  0.8273 -0.1931
     7 C(13)  Bbb     0.0014     0.183     0.065     0.061  0.8470  0.4947 -0.1946
              Bcc     0.0015     0.197     0.070     0.066  0.0655  0.2663  0.9617
 
              Baa    -0.0245   -13.091    -4.671    -4.367 -0.2149  0.3117  0.9256
     8 H(1)   Bbb    -0.0220   -11.752    -4.193    -3.920  0.8236  0.5672  0.0002
              Bcc     0.0466    24.843     8.865     8.287 -0.5249  0.7624 -0.3786
 
              Baa    -0.0143    -7.614    -2.717    -2.540  0.0859  0.5153  0.8527
     9 H(1)   Bbb     0.0007     0.379     0.135     0.126  0.3994  0.7663 -0.5033
              Bcc     0.0136     7.235     2.582     2.413  0.9128 -0.3838  0.1400
 
              Baa    -0.0594   -31.690   -11.308   -10.571 -0.6214  0.7821  0.0460
    10 H(1)   Bbb    -0.0590   -31.478   -11.232   -10.500  0.1898  0.0933  0.9774
              Bcc     0.1184    63.168    22.540    21.071  0.7602  0.6161 -0.2064
 
              Baa    -0.0109    -5.839    -2.083    -1.948 -0.5018  0.7309  0.4626
    11 H(1)   Bbb    -0.0026    -1.402    -0.500    -0.468  0.8029  0.1945  0.5635
              Bcc     0.0136     7.241     2.584     2.415 -0.3219 -0.6542  0.6844
 
              Baa    -0.0089    -4.742    -1.692    -1.582 -0.6469  0.6967 -0.3099
    12 H(1)   Bbb    -0.0039    -2.107    -0.752    -0.703 -0.4730 -0.0479  0.8798
              Bcc     0.0128     6.849     2.444     2.285  0.5981  0.7157  0.3605
 
              Baa    -0.0017    -0.919    -0.328    -0.307  0.2107  0.8458 -0.4901
    13 H(1)   Bbb    -0.0009    -0.474    -0.169    -0.158  0.8400 -0.4131 -0.3519
              Bcc     0.0026     1.393     0.497     0.465  0.5001  0.3375  0.7975
 
              Baa    -0.0028    -1.492    -0.532    -0.498 -0.0951  0.8423 -0.5305
    14 H(1)   Bbb    -0.0009    -0.460    -0.164    -0.153 -0.6549  0.3484  0.6706
              Bcc     0.0037     1.952     0.697     0.651  0.7497  0.4112  0.5185
 
              Baa    -0.0030    -1.589    -0.567    -0.530  0.1178  0.9874 -0.1054
    15 H(1)   Bbb    -0.0003    -0.135    -0.048    -0.045  0.7790 -0.1577 -0.6069
              Bcc     0.0032     1.725     0.615     0.575  0.6159  0.0106  0.7878
 
              Baa    -0.0018    -0.975    -0.348    -0.325  0.4852  0.6700  0.5618
    16 H(1)   Bbb    -0.0014    -0.738    -0.263    -0.246 -0.0566 -0.6171  0.7848
              Bcc     0.0032     1.713     0.611     0.571  0.8726 -0.4126 -0.2615
 
              Baa    -0.0026    -1.397    -0.499    -0.466 -0.2349 -0.4792  0.8457
    17 H(1)   Bbb    -0.0010    -0.540    -0.193    -0.180  0.5640  0.6414  0.5201
              Bcc     0.0036     1.937     0.691     0.646  0.7917 -0.5991 -0.1197
 
              Baa    -0.0022    -1.161    -0.414    -0.387  0.3897 -0.5662  0.7263
    18 H(1)   Bbb    -0.0004    -0.229    -0.082    -0.076  0.5837  0.7619  0.2808
              Bcc     0.0026     1.390     0.496     0.464  0.7124 -0.3145 -0.6274
 

 ---------------------------------------------------------------------------------

 No NMR shielding tensors so no spin-rotation constants.
 Leave Link  601 at Mon Apr 30 13:00:15 2018, MaxMem=  671088640 cpu:      19.1
 (Enter /shared/apps/gaussian/G09_LINUX_LINDA/g09/l716.exe)
 Dipole        = 3.51023912D-01-5.14769150D-01 4.64159561D-01
 Polarizability= 6.61417570D+01-9.91058520D+00 5.74828375D+01
                 9.30857972D+00-9.63663723D-01 5.90244641D+01
 HyperPolar    =-9.37353271D+01-5.40124845D+01-2.86878381D+01
                -1.76241810D+01 3.11322560D+01 1.76172613D+01
                 3.40816643D+01-1.73822737D+00-4.81127945D+00
                -3.81230002D+01
 -------------------------------------------------------------------
 Center     Atomic                   Forces (Hartrees/Bohr)
 Number     Number              X              Y              Z
 -------------------------------------------------------------------
      1        8          -0.029181480   -0.027926398    0.006201766
      2        8          -0.003289159    0.001292428    0.002471158
      3        6           0.005002796   -0.002072025    0.000933491
      4        6           0.001800443   -0.000740918   -0.000418162
      5        6           0.015458699    0.020454121   -0.004414495
      6        6          -0.000083108   -0.000054838   -0.001701033
      7        6           0.000334497   -0.000612939    0.000418905
      8        1           0.001308013    0.000378865   -0.000732086
      9        1           0.000833115   -0.000165212    0.000092676
     10        1          -0.000888112    0.005164343    0.000067144
     11        1           0.004393596    0.002116802   -0.000994636
     12        1           0.004195384    0.002381892   -0.001679586
     13        1           0.000024061   -0.000079748   -0.000120605
     14        1          -0.000003221   -0.000002734   -0.000157788
     15        1          -0.000036172   -0.000037435   -0.000196475
     16        1          -0.000006053    0.000011095    0.000077464
     17        1           0.000030264    0.000000539    0.000106366
     18        1           0.000106438   -0.000107837    0.000045895
 -------------------------------------------------------------------
 Cartesian Forces:  Max     0.029181480 RMS     0.006783203
 Z-matrix is all fixed cartesians, so copy forces.
 Leave Link  716 at Mon Apr 30 13:00:16 2018, MaxMem=  671088640 cpu:       0.5
 (Enter /shared/apps/gaussian/G09_LINUX_LINDA/g09/l9999.exe)

 This type of calculation cannot be archived.


      SCIENCE SANS CONSCIENCE N'EST QUE RUINE DE L'AME.

                                                  -- RABELAIS
 Job cpu time:  0 days  5 hours  7 minutes  8.1 seconds.
 File lengths (MBytes):  RWF=    134 Int=      0 D2E=      0 Chk=      5 Scr=      1
 Normal termination of Gaussian 09 at Mon Apr 30 13:00:16 2018.
