 Entering Gaussian System, Link 0=g09
 Initial command:
 /shared/apps/gaussian/G09_LINUX_LINDA/g09/l1.exe /home/harms.n/Code/AutoTST/ipython_notebooks/Gau-47740.inp -scrdir=/home/harms.n/Code/AutoTST/ipython_notebooks/
 Entering Link 1 = /shared/apps/gaussian/G09_LINUX_LINDA/g09/l1.exe PID=     47741.
  
 Copyright (c) 1988,1990,1992,1993,1995,1998,2003,2009,2010,
            Gaussian, Inc.  All Rights Reserved.
  
 This is part of the Gaussian(R) 09 program.  It is based on
 the Gaussian(R) 03 system (copyright 2003, Gaussian, Inc.),
 the Gaussian(R) 98 system (copyright 1998, Gaussian, Inc.),
 the Gaussian(R) 94 system (copyright 1995, Gaussian, Inc.),
 the Gaussian 92(TM) system (copyright 1992, Gaussian, Inc.),
 the Gaussian 90(TM) system (copyright 1990, Gaussian, Inc.),
 the Gaussian 88(TM) system (copyright 1988, Gaussian, Inc.),
 the Gaussian 86(TM) system (copyright 1986, Carnegie Mellon
 University), and the Gaussian 82(TM) system (copyright 1983,
 Carnegie Mellon University). Gaussian is a federally registered
 trademark of Gaussian, Inc.
  
 This software contains proprietary and confidential information,
 including trade secrets, belonging to Gaussian, Inc.
  
 This software is provided under written license and may be
 used, copied, transmitted, or stored only in accord with that
 written license.
  
 The following legend is applicable only to US Government
 contracts under FAR:
  
                    RESTRICTED RIGHTS LEGEND
  
 Use, reproduction and disclosure by the US Government is
 subject to restrictions as set forth in subparagraphs (a)
 and (c) of the Commercial Computer Software - Restricted
 Rights clause in FAR 52.227-19.
  
 Gaussian, Inc.
 340 Quinnipiac St., Bldg. 40, Wallingford CT 06492
  
  
 ---------------------------------------------------------------
 Warning -- This program may not be used in any manner that
 competes with the business of Gaussian, Inc. or will provide
 assistance to any competitor of Gaussian, Inc.  The licensee
 of this program is prohibited from giving any competitor of
 Gaussian, Inc. access to this program.  By using this program,
 the user acknowledges that Gaussian, Inc. is engaged in the
 business of creating and licensing software in the field of
 computational chemistry and represents and warrants to the
 licensee that it is not a competitor of Gaussian, Inc. and that
 it will not use this program in any manner prohibited above.
 ---------------------------------------------------------------
  

 Cite this work as:
 Gaussian 09, Revision B.01,
 M. J. Frisch, G. W. Trucks, H. B. Schlegel, G. E. Scuseria, 
 M. A. Robb, J. R. Cheeseman, G. Scalmani, V. Barone, B. Mennucci, 
 G. A. Petersson, H. Nakatsuji, M. Caricato, X. Li, H. P. Hratchian, 
 A. F. Izmaylov, J. Bloino, G. Zheng, J. L. Sonnenberg, M. Hada, 
 M. Ehara, K. Toyota, R. Fukuda, J. Hasegawa, M. Ishida, T. Nakajima, 
 Y. Honda, O. Kitao, H. Nakai, T. Vreven, J. A. Montgomery, Jr., 
 J. E. Peralta, F. Ogliaro, M. Bearpark, J. J. Heyd, E. Brothers, 
 K. N. Kudin, V. N. Staroverov, T. Keith, R. Kobayashi, J. Normand, 
 K. Raghavachari, A. Rendell, J. C. Burant, S. S. Iyengar, J. Tomasi, 
 M. Cossi, N. Rega, J. M. Millam, M. Klene, J. E. Knox, J. B. Cross, 
 V. Bakken, C. Adamo, J. Jaramillo, R. Gomperts, R. E. Stratmann, 
 O. Yazyev, A. J. Austin, R. Cammi, C. Pomelli, J. W. Ochterski, 
 R. L. Martin, K. Morokuma, V. G. Zakrzewski, G. A. Voth, 
 P. Salvador, J. J. Dannenberg, S. Dapprich, A. D. Daniels, 
 O. Farkas, J. B. Foresman, J. V. Ortiz, J. Cioslowski, 
 and D. J. Fox, Gaussian, Inc., Wallingford CT, 2010.
 
 ******************************************
 Gaussian 09:  EM64L-G09RevB.01 12-Aug-2010
                30-Apr-2018 
 ******************************************
 %nprocshared=20
 Will use up to   20 processors via shared memory.
 %mem=5GB
 ---------------------------------------------
 #p hf/6-31g* opt=(ts,calcfc,noeigentest) freq
 ---------------------------------------------
 1/5=1,10=4,11=1,18=20,38=1/1,3;
 2/9=110,12=2,17=6,18=5,40=1/2;
 3/5=1,6=6,7=1,11=9,16=1,25=1,30=1,71=2/1,2,3;
 4//1;
 5/5=2,38=5/2;
 8/6=4,10=90,11=11/1;
 11/6=1,8=1,9=11,15=111,16=1/1,2,10;
 10/6=1,7=6,13=1/2;
 6/7=2,8=2,9=2,10=2,28=1/1;
 7/10=1,18=20,25=1/1,2,3,16;
 1/5=1,10=4,11=1,18=20/3(2);
 2/9=110/2;
 99//99;
 2/9=110/2;
 3/5=1,6=6,7=1,11=9,16=1,25=1,30=1,71=1/1,2,3;
 4/5=5,16=3/1;
 5/5=2,38=5/2;
 7//1,2,3,16;
 1/5=1,11=1,18=20/3(-5);
 2/9=110/2;
 6/7=2,8=2,9=2,10=2,19=2,28=1/1;
 99/9=1/99;
 Leave Link    1 at Mon Apr 30 12:21:04 2018, MaxMem=  671088640 cpu:       1.1
 (Enter /shared/apps/gaussian/G09_LINUX_LINDA/g09/l101.exe)
 ------------------------------
 Gaussian input prepared by ASE
 ------------------------------
 Symbolic Z-matrix:
 Charge =  0 Multiplicity = 2
 O                    -3.08507  -0.10326   0.02107 
 O                    -2.72708  -1.16931  -0.75428 
 C                    -0.03729   0.38744  -0.80451 
 C                     0.90827  -0.06346   0.06144 
 C                    -1.08707   1.35862  -0.5371 
 C                     1.04308   0.39179   1.49256 
 C                     1.93327  -1.07827  -0.3799 
 H                    -2.23527  -1.72509  -0.16075 
 H                    -0.04125  -0.03522  -1.79489 
 H                    -2.14827   0.677    -0.17139 
 H                    -1.48728   1.84731  -1.4113 
 H                    -0.93614   2.04469   0.28045 
 H                     2.0059    0.87279   1.65015 
 H                     0.2698    1.08366   1.79614 
 H                     1.00549  -0.46159   2.16571 
 H                     2.94055  -0.68127  -0.2746 
 H                     1.88419  -1.9746    0.23502 
 H                     1.79427  -1.37105  -1.41383 
 
 NAtoms=     18 NQM=     18 NQMF=      0 NMic=      0 NMicF=      0 NTot=     18.
                    Isotopes and Nuclear Properties:
 (Nuclear quadrupole moments (NQMom) in fm**2, nuclear magnetic moments (NMagM)
  in nuclear magnetons)

  Atom         1           2           3           4           5           6           7           8           9          10
 IAtWgt=          16          16          12          12          12          12          12           1           1           1
 AtmWgt=  15.9949146  15.9949146  12.0000000  12.0000000  12.0000000  12.0000000  12.0000000   1.0078250   1.0078250   1.0078250
 NucSpn=           0           0           0           0           0           0           0           1           1           1
 AtZEff=   0.0000000   0.0000000   0.0000000   0.0000000   0.0000000   0.0000000   0.0000000   0.0000000   0.0000000   0.0000000
 NQMom=    0.0000000   0.0000000   0.0000000   0.0000000   0.0000000   0.0000000   0.0000000   0.0000000   0.0000000   0.0000000
 NMagM=    0.0000000   0.0000000   0.0000000   0.0000000   0.0000000   0.0000000   0.0000000   2.7928460   2.7928460   2.7928460

  Atom        11          12          13          14          15          16          17          18
 IAtWgt=           1           1           1           1           1           1           1           1
 AtmWgt=   1.0078250   1.0078250   1.0078250   1.0078250   1.0078250   1.0078250   1.0078250   1.0078250
 NucSpn=           1           1           1           1           1           1           1           1
 AtZEff=   0.0000000   0.0000000   0.0000000   0.0000000   0.0000000   0.0000000   0.0000000   0.0000000
 NQMom=    0.0000000   0.0000000   0.0000000   0.0000000   0.0000000   0.0000000   0.0000000   0.0000000
 NMagM=    2.7928460   2.7928460   2.7928460   2.7928460   2.7928460   2.7928460   2.7928460   2.7928460
 Leave Link  101 at Mon Apr 30 12:21:04 2018, MaxMem=  671088640 cpu:       1.2
 (Enter /shared/apps/gaussian/G09_LINUX_LINDA/g09/l103.exe)

 GradGradGradGradGradGradGradGradGradGradGradGradGradGradGradGradGradGrad
 Berny optimization.
 Initialization pass.
                           ----------------------------
                           !    Initial Parameters    !
                           ! (Angstroms and Degrees)  !
 --------------------------                            --------------------------
 ! Name  Definition              Value          Derivative Info.                !
 --------------------------------------------------------------------------------
 ! R1    R(1,2)                  1.3659         calculate D2E/DX2 analytically  !
 ! R2    R(1,10)                 1.2343         calculate D2E/DX2 analytically  !
 ! R3    R(2,8)                  0.9503         calculate D2E/DX2 analytically  !
 ! R4    R(3,4)                  1.3591         calculate D2E/DX2 analytically  !
 ! R5    R(3,5)                  1.4549         calculate D2E/DX2 analytically  !
 ! R6    R(3,9)                  1.0768         calculate D2E/DX2 analytically  !
 ! R7    R(4,6)                  1.5078         calculate D2E/DX2 analytically  !
 ! R8    R(4,7)                  1.5084         calculate D2E/DX2 analytically  !
 ! R9    R(5,10)                 1.3132         calculate D2E/DX2 analytically  !
 ! R10   R(5,11)                 1.0785         calculate D2E/DX2 analytically  !
 ! R11   R(5,12)                 1.0779         calculate D2E/DX2 analytically  !
 ! R12   R(6,13)                 1.0878         calculate D2E/DX2 analytically  !
 ! R13   R(6,14)                 1.0811         calculate D2E/DX2 analytically  !
 ! R14   R(6,15)                 1.0876         calculate D2E/DX2 analytically  !
 ! R15   R(7,16)                 1.0878         calculate D2E/DX2 analytically  !
 ! R16   R(7,17)                 1.0881         calculate D2E/DX2 analytically  !
 ! R17   R(7,18)                 1.0835         calculate D2E/DX2 analytically  !
 ! A1    A(2,1,10)             101.8848         calculate D2E/DX2 analytically  !
 ! A2    A(1,2,8)              103.7425         calculate D2E/DX2 analytically  !
 ! A3    A(4,3,5)              127.3245         calculate D2E/DX2 analytically  !
 ! A4    A(4,3,9)              117.2798         calculate D2E/DX2 analytically  !
 ! A5    A(5,3,9)              115.3666         calculate D2E/DX2 analytically  !
 ! A6    A(3,4,6)              124.5242         calculate D2E/DX2 analytically  !
 ! A7    A(3,4,7)              120.6325         calculate D2E/DX2 analytically  !
 ! A8    A(6,4,7)              114.8398         calculate D2E/DX2 analytically  !
 ! A9    A(3,5,10)             106.7255         calculate D2E/DX2 analytically  !
 ! A10   A(3,5,11)             114.9118         calculate D2E/DX2 analytically  !
 ! A11   A(3,5,12)             117.5967         calculate D2E/DX2 analytically  !
 ! A12   A(10,5,11)             99.2684         calculate D2E/DX2 analytically  !
 ! A13   A(10,5,12)            103.433          calculate D2E/DX2 analytically  !
 ! A14   A(11,5,12)            112.2306         calculate D2E/DX2 analytically  !
 ! A15   A(4,6,13)             110.4972         calculate D2E/DX2 analytically  !
 ! A16   A(4,6,14)             113.3157         calculate D2E/DX2 analytically  !
 ! A17   A(4,6,15)             110.3318         calculate D2E/DX2 analytically  !
 ! A18   A(13,6,14)            108.0254         calculate D2E/DX2 analytically  !
 ! A19   A(13,6,15)            106.7319         calculate D2E/DX2 analytically  !
 ! A20   A(14,6,15)            107.6756         calculate D2E/DX2 analytically  !
 ! A21   A(4,7,16)             110.817          calculate D2E/DX2 analytically  !
 ! A22   A(4,7,17)             110.9891         calculate D2E/DX2 analytically  !
 ! A23   A(4,7,18)             111.9508         calculate D2E/DX2 analytically  !
 ! A24   A(16,7,17)            106.7206         calculate D2E/DX2 analytically  !
 ! A25   A(16,7,18)            108.0456         calculate D2E/DX2 analytically  !
 ! A26   A(17,7,18)            108.1127         calculate D2E/DX2 analytically  !
 ! A27   A(1,10,5)             170.0262         calculate D2E/DX2 analytically  !
 ! D1    D(10,1,2,8)            91.5305         calculate D2E/DX2 analytically  !
 ! D2    D(2,1,10,5)             8.5492         calculate D2E/DX2 analytically  !
 ! D3    D(5,3,4,6)             -0.6403         calculate D2E/DX2 analytically  !
 ! D4    D(5,3,4,7)           -179.9189         calculate D2E/DX2 analytically  !
 ! D5    D(9,3,4,6)           -178.5754         calculate D2E/DX2 analytically  !
 ! D6    D(9,3,4,7)              2.1459         calculate D2E/DX2 analytically  !
 ! D7    D(4,3,5,10)           -92.8651         calculate D2E/DX2 analytically  !
 ! D8    D(4,3,5,11)           158.1699         calculate D2E/DX2 analytically  !
 ! D9    D(4,3,5,12)            22.6523         calculate D2E/DX2 analytically  !
 ! D10   D(9,3,5,10)            85.1039         calculate D2E/DX2 analytically  !
 ! D11   D(9,3,5,11)           -23.8611         calculate D2E/DX2 analytically  !
 ! D12   D(9,3,5,12)          -159.3787         calculate D2E/DX2 analytically  !
 ! D13   D(3,4,6,13)          -118.0541         calculate D2E/DX2 analytically  !
 ! D14   D(3,4,6,14)             3.3351         calculate D2E/DX2 analytically  !
 ! D15   D(3,4,6,15)           124.1519         calculate D2E/DX2 analytically  !
 ! D16   D(7,4,6,13)            61.262          calculate D2E/DX2 analytically  !
 ! D17   D(7,4,6,14)          -177.3488         calculate D2E/DX2 analytically  !
 ! D18   D(7,4,6,15)           -56.532          calculate D2E/DX2 analytically  !
 ! D19   D(3,4,7,16)           120.1302         calculate D2E/DX2 analytically  !
 ! D20   D(3,4,7,17)          -121.4756         calculate D2E/DX2 analytically  !
 ! D21   D(3,4,7,18)            -0.5699         calculate D2E/DX2 analytically  !
 ! D22   D(6,4,7,16)           -59.215          calculate D2E/DX2 analytically  !
 ! D23   D(6,4,7,17)            59.1793         calculate D2E/DX2 analytically  !
 ! D24   D(6,4,7,18)          -179.915          calculate D2E/DX2 analytically  !
 ! D25   D(3,5,10,1)           -38.884          calculate D2E/DX2 analytically  !
 ! D26   D(11,5,10,1)           80.7651         calculate D2E/DX2 analytically  !
 ! D27   D(12,5,10,1)         -163.5705         calculate D2E/DX2 analytically  !
 --------------------------------------------------------------------------------
 Trust Radius=3.00D-01 FncErr=1.00D-07 GrdErr=1.00D-07
 Number of steps in this run=     81 maximum allowed number of steps=    108.
 Search for a saddle point of order  1.
 GradGradGradGradGradGradGradGradGradGradGradGradGradGradGradGradGradGrad

 Leave Link  103 at Mon Apr 30 12:21:04 2018, MaxMem=  671088640 cpu:       0.2
 (Enter /shared/apps/gaussian/G09_LINUX_LINDA/g09/l202.exe)
                          Input orientation:                          
 ---------------------------------------------------------------------
 Center     Atomic      Atomic             Coordinates (Angstroms)
 Number     Number       Type             X           Y           Z
 ---------------------------------------------------------------------
      1          8           0       -3.085066   -0.103265    0.021072
      2          8           0       -2.727077   -1.169309   -0.754278
      3          6           0       -0.037290    0.387440   -0.804511
      4          6           0        0.908265   -0.063465    0.061444
      5          6           0       -1.087074    1.358622   -0.537096
      6          6           0        1.043078    0.391795    1.492556
      7          6           0        1.933275   -1.078266   -0.379901
      8          1           0       -2.235273   -1.725088   -0.160753
      9          1           0       -0.041246   -0.035216   -1.794890
     10          1           0       -2.148269    0.676998   -0.171387
     11          1           0       -1.487278    1.847312   -1.411298
     12          1           0       -0.936142    2.044691    0.280446
     13          1           0        2.005905    0.872795    1.650152
     14          1           0        0.269799    1.083664    1.796141
     15          1           0        1.005486   -0.461591    2.165711
     16          1           0        2.940548   -0.681270   -0.274604
     17          1           0        1.884188   -1.974601    0.235025
     18          1           0        1.794271   -1.371048   -1.413828
 ---------------------------------------------------------------------
                    Distance matrix (angstroms):
                    1          2          3          4          5
     1  O    0.000000
     2  O    1.365933   0.000000
     3  C    3.195515   3.108206   0.000000
     4  C    3.993733   3.886387   1.359142   0.000000
     5  C    2.537840   3.021128   1.454907   2.522293   0.000000
     6  C    4.410433   4.658259   2.538450   1.507818   3.097062
     7  C    5.127879   4.676251   2.492331   1.508394   3.884024
     8  H    1.839978   0.950281   3.115819   3.562611   3.311988
     9  H    3.545022   3.095598   1.076803   2.085269   2.149090
    10  H    1.234277   2.020799   2.222819   3.153553   1.313198
    11  H    2.899889   3.326977   2.145200   3.399804   1.078522
    12  H    3.049404   3.822028   2.175213   2.809648   1.077890
    13  H    5.433652   5.687934   3.230416   2.146017   3.819241
    14  H    3.976781   4.534511   2.709691   2.175481   2.713062
    15  H    4.632547   4.791579   3.260438   2.143804   3.872616
    16  H    6.060490   5.708787   3.207875   2.150532   4.522368
    17  H    5.314241   4.784452   3.217444   2.152904   4.531550
    18  H    5.241578   4.573652   2.611161   2.161298   4.064715
                    6          7          8          9         10
     6  C    0.000000
     7  C    2.541579   0.000000
     8  H    4.238184   4.224121   0.000000
     9  H    3.487893   2.643649   3.215559   0.000000
    10  H    3.610366   4.447857   2.403685   2.753644   0.000000
    11  H    4.117475   4.617680   3.858160   2.404592   1.828639
    12  H    2.849314   4.292141   4.011687   3.071461   1.882548
    13  H    1.087765   2.816564   5.293011   4.108969   4.540209
    14  H    1.081114   3.489449   4.241923   3.774142   3.143819
    15  H    1.087575   2.778708   4.184660   4.118714   4.087124
    16  H    2.806192   1.087793   5.281254   3.408776   5.267979
    17  H    2.808679   1.088099   4.145944   3.404271   4.843228
    18  H    3.481232   1.083535   4.234709   2.301907   4.613217
                   11         12         13         14         15
    11  H    0.000000
    12  H    1.790169   0.000000
    13  H    4.745997   3.450373   0.000000
    14  H    3.736060   2.162221   1.754948   0.000000
    15  H    4.933548   3.688577   1.745630   1.750895   0.000000
    16  H    5.224122   4.771548   2.644497   3.812595   3.122156
    17  H    5.355761   4.910299   3.181991   3.794249   2.605545
    18  H    4.596348   4.689669   3.803630   4.318974   3.776558
                   16         17         18
    16  H    0.000000
    17  H    1.745945   0.000000
    18  H    1.757151   1.758146   0.000000
 Stoichiometry    C5H11O2(2)
 Framework group  C1[X(C5H11O2)]
 Deg. of freedom    48
 Full point group                 C1      NOp   1
 Largest Abelian subgroup         C1      NOp   1
 Largest concise Abelian subgroup C1      NOp   1
                         Standard orientation:                         
 ---------------------------------------------------------------------
 Center     Atomic      Atomic             Coordinates (Angstroms)
 Number     Number       Type             X           Y           Z
 ---------------------------------------------------------------------
      1          8           0       -2.553400   -0.218451   -0.528596
      2          8           0       -2.329496    1.104283   -0.271665
      3          6           0        0.306900   -0.064443    0.887834
      4          6           0        1.387988    0.023357    0.068806
      5          6           0       -0.685065   -1.127983    0.928357
      6          6           0        1.763713   -1.008927   -0.964023
      7          6           0        2.325984    1.201278    0.157791
      8          1           0       -1.741665    1.373197   -0.968209
      9          1           0        0.135275    0.752610    1.567888
     10          1           0       -1.665889   -0.760334    0.136328
     11          1           0       -1.230356   -1.205531    1.855639
     12          1           0       -0.399038   -2.092571    0.541571
     13          1           0        2.737675   -1.437204   -0.737727
     14          1           0        1.051312   -1.818707   -1.038519
     15          1           0        1.844539   -0.548818   -1.946156
     16          1           0        3.335091    0.874525    0.399096
     17          1           0        2.385683    1.724753   -0.794244
     18          1           0        2.013418    1.911735    0.913835
 ---------------------------------------------------------------------
 Rotational constants (GHZ):      3.6555842      1.2191218      1.1216115
 Leave Link  202 at Mon Apr 30 12:21:04 2018, MaxMem=  671088640 cpu:       0.7
 (Enter /shared/apps/gaussian/G09_LINUX_LINDA/g09/l301.exe)
 Standard basis: 6-31G(d) (6D, 7F)
 Ernie: Thresh=  0.10000D-02 Tol=  0.10000D-05 Strict=F.
 There are   127 symmetry adapted basis functions of A   symmetry.
 Integral buffers will be    131072 words long.
 Raffenetti 2 integral format.
 Two-electron integral symmetry is turned on.
   127 basis functions,   240 primitive gaussians,   127 cartesian basis functions
    29 alpha electrons       28 beta electrons
       nuclear repulsion energy       304.1052189778 Hartrees.
 IExCor=    0 DFT=F Ex=HF Corr=None ExCW=0 ScaHFX=  1.000000
 ScaDFX=  1.000000  1.000000  1.000000  1.000000 ScalE2=  1.000000  1.000000
 IRadAn=      0 IRanWt=     -1 IRanGd=            0 ICorTp=0
 NAtoms=   18 NActive=   18 NUniq=   18 SFac= 1.00D+00 NAtFMM=   50 NAOKFM=F Big=F
 Leave Link  301 at Mon Apr 30 12:21:04 2018, MaxMem=  671088640 cpu:       1.0
 (Enter /shared/apps/gaussian/G09_LINUX_LINDA/g09/l302.exe)
 NPDir=0 NMtPBC=     1 NCelOv=     1 NCel=       1 NClECP=     1 NCelD=      1
         NCelK=      1 NCelE2=     1 NClLst=     1 CellRange=     0.0.
 One-electron integrals computed using PRISM.
 NBasis=   127 RedAO= T  NBF=   127
 NBsUse=   127 1.00D-06 NBFU=   127
 Leave Link  302 at Mon Apr 30 12:21:05 2018, MaxMem=  671088640 cpu:       6.7
 (Enter /shared/apps/gaussian/G09_LINUX_LINDA/g09/l303.exe)
 DipDrv:  MaxL=1.
 Leave Link  303 at Mon Apr 30 12:21:05 2018, MaxMem=  671088640 cpu:       1.8
 (Enter /shared/apps/gaussian/G09_LINUX_LINDA/g09/l401.exe)
 Harris functional with IExCor=  205 diagonalized for initial guess.
 ExpMin= 1.61D-01 ExpMax= 5.48D+03 ExpMxC= 8.25D+02 IAcc=1 IRadAn=         1 AccDes= 0.00D+00
 HarFok:  IExCor=  205 AccDes= 0.00D+00 IRadAn=         1 IDoV= 1
 ScaDFX=  1.000000  1.000000  1.000000  1.000000
 FoFCou: FMM=F IPFlag=           0 FMFlag=      100000 FMFlg1=           0
         NFxFlg=           0 DoJE=T BraDBF=F KetDBF=T FulRan=T
         Omega=  0.000000  0.000000  1.000000  0.000000  0.000000 ICntrl=     500 IOpCl=  0
         NMat0=    1 NMatS0=    1 NMatT0=    0 NMatD0=    1 NMtDS0=    0 NMtDT0=    0
         I1Cent=           4 NGrid=           0.
 Petite list used in FoFCou.
 Harris En= -345.813020762731    
 Initial guess orbital symmetries:
 Alpha Orbitals:
       Occupied  (A) (A) (A) (A) (A) (A) (A) (A) (A) (A) (A) (A)
                 (A) (A) (A) (A) (A) (A) (A) (A) (A) (A) (A) (A)
                 (A) (A) (A) (A) (A)
       Virtual   (A) (A) (A) (A) (A) (A) (A) (A) (A) (A) (A) (A)
                 (A) (A) (A) (A) (A) (A) (A) (A) (A) (A) (A) (A)
                 (A) (A) (A) (A) (A) (A) (A) (A) (A) (A) (A) (A)
                 (A) (A) (A) (A) (A) (A) (A) (A) (A) (A) (A) (A)
                 (A) (A) (A) (A) (A) (A) (A) (A) (A) (A) (A) (A)
                 (A) (A) (A) (A) (A) (A) (A) (A) (A) (A) (A) (A)
                 (A) (A) (A) (A) (A) (A) (A) (A) (A) (A) (A) (A)
                 (A) (A) (A) (A) (A) (A) (A) (A) (A) (A) (A) (A)
                 (A) (A)
 Beta  Orbitals:
       Occupied  (A) (A) (A) (A) (A) (A) (A) (A) (A) (A) (A) (A)
                 (A) (A) (A) (A) (A) (A) (A) (A) (A) (A) (A) (A)
                 (A) (A) (A) (A)
       Virtual   (A) (A) (A) (A) (A) (A) (A) (A) (A) (A) (A) (A)
                 (A) (A) (A) (A) (A) (A) (A) (A) (A) (A) (A) (A)
                 (A) (A) (A) (A) (A) (A) (A) (A) (A) (A) (A) (A)
                 (A) (A) (A) (A) (A) (A) (A) (A) (A) (A) (A) (A)
                 (A) (A) (A) (A) (A) (A) (A) (A) (A) (A) (A) (A)
                 (A) (A) (A) (A) (A) (A) (A) (A) (A) (A) (A) (A)
                 (A) (A) (A) (A) (A) (A) (A) (A) (A) (A) (A) (A)
                 (A) (A) (A) (A) (A) (A) (A) (A) (A) (A) (A) (A)
                 (A) (A) (A)
 The electronic state of the initial guess is 2-A.
 Initial guess <Sx>= 0.0000 <Sy>= 0.0000 <Sz>= 0.5000 <S**2>= 0.7500 S= 0.5000
 Leave Link  401 at Mon Apr 30 12:21:08 2018, MaxMem=  671088640 cpu:      28.7
 (Enter /shared/apps/gaussian/G09_LINUX_LINDA/g09/l502.exe)
 UHF open shell SCF:
 Requested convergence on RMS density matrix=1.00D-08 within 128 cycles.
 Requested convergence on MAX density matrix=1.00D-06.
 Requested convergence on             energy=1.00D-06.
 No special actions if energy rises.
 Using DIIS extrapolation, IDIIS=  1040.
 Integral symmetry usage will be decided dynamically.
 Keep R1 and R2 ints in memory in canonical form, NReq=67191093.
 IEnd=       70048 IEndB=       70048 NGot=   671088640 MDV=   604978949
 LenX=   604978949 LenY=   604962379
 Symmetry not used in FoFDir.
 MinBra= 0 MaxBra= 2 Meth= 1.
 IRaf=       0 NMat=   1 IRICut=       1 DoRegI=T DoRafI=F ISym2E= 0 JSym2E=0.

 Cycle   1  Pass 1  IDiag  1:
 E= -344.875307798240    
 DIIS: error= 4.88D-02 at cycle   1 NSaved=   1.
 NSaved= 1 IEnMin= 1 EnMin= -344.875307798240     IErMin= 1 ErrMin= 4.88D-02
 ErrMax= 4.88D-02 EMaxC= 1.00D-01 BMatC= 1.99D+00 BMatP= 1.99D+00
 IDIUse=3 WtCom= 5.12D-01 WtEn= 4.88D-01
 Coeff-Com:  0.100D+01
 Coeff-En:   0.100D+01
 Coeff:      0.100D+01
 Gap=     0.571 Goal=   None    Shift=    0.000
 Gap=     0.533 Goal=   None    Shift=    0.000
 GapD=    0.533 DampG=2.000 DampE=0.500 DampFc=1.0000 IDamp=-1.
 RMSDP=5.65D-03 MaxDP=1.13D-01              OVMax= 1.99D-01

 Cycle   2  Pass 1  IDiag  1:
 E= -345.189825865070     Delta-E=       -0.314518066831 Rises=F Damp=F
 DIIS: error= 1.81D-02 at cycle   2 NSaved=   2.
 NSaved= 2 IEnMin= 2 EnMin= -345.189825865070     IErMin= 2 ErrMin= 1.81D-02
 ErrMax= 1.81D-02 EMaxC= 1.00D-01 BMatC= 2.13D-01 BMatP= 1.99D+00
 IDIUse=3 WtCom= 8.19D-01 WtEn= 1.81D-01
 Coeff-Com:  0.171D+00 0.829D+00
 Coeff-En:   0.000D+00 0.100D+01
 Coeff:      0.140D+00 0.860D+00
 Gap=     0.567 Goal=   None    Shift=    0.000
 Gap=     0.355 Goal=   None    Shift=    0.000
 RMSDP=2.47D-03 MaxDP=4.38D-02 DE=-3.15D-01 OVMax= 8.62D-02

 Cycle   3  Pass 1  IDiag  1:
 E= -345.242530308352     Delta-E=       -0.052704443282 Rises=F Damp=F
 DIIS: error= 6.00D-03 at cycle   3 NSaved=   3.
 NSaved= 3 IEnMin= 3 EnMin= -345.242530308352     IErMin= 3 ErrMin= 6.00D-03
 ErrMax= 6.00D-03 EMaxC= 1.00D-01 BMatC= 1.85D-02 BMatP= 2.13D-01
 IDIUse=3 WtCom= 9.40D-01 WtEn= 6.00D-02
 Coeff-Com: -0.201D-01 0.147D+00 0.873D+00
 Coeff-En:   0.000D+00 0.000D+00 0.100D+01
 Coeff:     -0.189D-01 0.138D+00 0.881D+00
 Gap=     0.498 Goal=   None    Shift=    0.000
 Gap=     0.362 Goal=   None    Shift=    0.000
 RMSDP=6.77D-04 MaxDP=1.55D-02 DE=-5.27D-02 OVMax= 5.04D-02

 Cycle   4  Pass 1  IDiag  1:
 E= -345.250746848104     Delta-E=       -0.008216539752 Rises=F Damp=F
 DIIS: error= 4.43D-03 at cycle   4 NSaved=   4.
 NSaved= 4 IEnMin= 4 EnMin= -345.250746848104     IErMin= 4 ErrMin= 4.43D-03
 ErrMax= 4.43D-03 EMaxC= 1.00D-01 BMatC= 3.84D-03 BMatP= 1.85D-02
 IDIUse=3 WtCom= 9.56D-01 WtEn= 4.43D-02
 Coeff-Com: -0.703D-02-0.184D-01 0.928D-01 0.933D+00
 Coeff-En:   0.000D+00 0.000D+00 0.000D+00 0.100D+01
 Coeff:     -0.672D-02-0.176D-01 0.887D-01 0.936D+00
 Gap=     0.498 Goal=   None    Shift=    0.000
 Gap=     0.379 Goal=   None    Shift=    0.000
 RMSDP=3.77D-04 MaxDP=1.17D-02 DE=-8.22D-03 OVMax= 2.95D-02

 Cycle   5  Pass 1  IDiag  1:
 E= -345.253820595628     Delta-E=       -0.003073747524 Rises=F Damp=F
 DIIS: error= 2.50D-03 at cycle   5 NSaved=   5.
 NSaved= 5 IEnMin= 5 EnMin= -345.253820595628     IErMin= 5 ErrMin= 2.50D-03
 ErrMax= 2.50D-03 EMaxC= 1.00D-01 BMatC= 1.96D-03 BMatP= 3.84D-03
 IDIUse=3 WtCom= 9.75D-01 WtEn= 2.50D-02
 Coeff-Com:  0.121D-01-0.668D-01-0.442D+00-0.128D+00 0.162D+01
 Coeff-En:   0.000D+00 0.000D+00 0.000D+00 0.000D+00 0.100D+01
 Coeff:      0.118D-01-0.651D-01-0.431D+00-0.124D+00 0.161D+01
 Gap=     0.509 Goal=   None    Shift=    0.000
 Gap=     0.405 Goal=   None    Shift=    0.000
 RMSDP=5.89D-04 MaxDP=1.91D-02 DE=-3.07D-03 OVMax= 4.22D-02

 Cycle   6  Pass 1  IDiag  1:
 E= -345.256718691170     Delta-E=       -0.002898095543 Rises=F Damp=F
 DIIS: error= 1.34D-03 at cycle   6 NSaved=   6.
 NSaved= 6 IEnMin= 6 EnMin= -345.256718691170     IErMin= 6 ErrMin= 1.34D-03
 ErrMax= 1.34D-03 EMaxC= 1.00D-01 BMatC= 4.97D-04 BMatP= 1.96D-03
 IDIUse=3 WtCom= 9.87D-01 WtEn= 1.34D-02
 Coeff-Com:  0.287D-02 0.200D-02-0.526D-01-0.171D+00 0.181D+00 0.104D+01
 Coeff-En:   0.000D+00 0.000D+00 0.000D+00 0.000D+00 0.000D+00 0.100D+01
 Coeff:      0.284D-02 0.198D-02-0.519D-01-0.169D+00 0.179D+00 0.104D+01
 Gap=     0.511 Goal=   None    Shift=    0.000
 Gap=     0.414 Goal=   None    Shift=    0.000
 RMSDP=2.09D-04 MaxDP=4.78D-03 DE=-2.90D-03 OVMax= 1.67D-02

 Cycle   7  Pass 1  IDiag  1:
 E= -345.257338133069     Delta-E=       -0.000619441899 Rises=F Damp=F
 DIIS: error= 8.87D-04 at cycle   7 NSaved=   7.
 NSaved= 7 IEnMin= 7 EnMin= -345.257338133069     IErMin= 7 ErrMin= 8.87D-04
 ErrMax= 8.87D-04 EMaxC= 1.00D-01 BMatC= 2.52D-04 BMatP= 4.97D-04
 IDIUse=3 WtCom= 9.91D-01 WtEn= 8.87D-03
 Coeff-Com: -0.351D-02 0.238D-01 0.136D+00 0.280D-01-0.529D+00 0.950D-01
 Coeff-Com:  0.125D+01
 Coeff-En:   0.000D+00 0.000D+00 0.000D+00 0.000D+00 0.000D+00 0.000D+00
 Coeff-En:   0.100D+01
 Coeff:     -0.348D-02 0.236D-01 0.134D+00 0.278D-01-0.525D+00 0.941D-01
 Coeff:      0.125D+01
 Gap=     0.514 Goal=   None    Shift=    0.000
 Gap=     0.418 Goal=   None    Shift=    0.000
 RMSDP=2.01D-04 MaxDP=4.75D-03 DE=-6.19D-04 OVMax= 1.80D-02

 Cycle   8  Pass 1  IDiag  1:
 E= -345.257798426668     Delta-E=       -0.000460293598 Rises=F Damp=F
 DIIS: error= 6.72D-04 at cycle   8 NSaved=   8.
 NSaved= 8 IEnMin= 8 EnMin= -345.257798426668     IErMin= 8 ErrMin= 6.72D-04
 ErrMax= 6.72D-04 EMaxC= 1.00D-01 BMatC= 1.30D-04 BMatP= 2.52D-04
 IDIUse=3 WtCom= 9.93D-01 WtEn= 6.72D-03
 Coeff-Com:  0.221D-02-0.234D-01-0.109D+00 0.682D-01 0.360D+00-0.565D+00
 Coeff-Com: -0.113D+01 0.240D+01
 Coeff-En:   0.000D+00 0.000D+00 0.000D+00 0.000D+00 0.000D+00 0.000D+00
 Coeff-En:   0.000D+00 0.100D+01
 Coeff:      0.220D-02-0.233D-01-0.108D+00 0.677D-01 0.358D+00-0.561D+00
 Coeff:     -0.113D+01 0.239D+01
 Gap=     0.519 Goal=   None    Shift=    0.000
 Gap=     0.424 Goal=   None    Shift=    0.000
 RMSDP=2.96D-04 MaxDP=6.99D-03 DE=-4.60D-04 OVMax= 2.77D-02

 Cycle   9  Pass 1  IDiag  1:
 E= -345.258245042148     Delta-E=       -0.000446615481 Rises=F Damp=F
 DIIS: error= 4.12D-04 at cycle   9 NSaved=   9.
 NSaved= 9 IEnMin= 9 EnMin= -345.258245042148     IErMin= 9 ErrMin= 4.12D-04
 ErrMax= 4.12D-04 EMaxC= 1.00D-01 BMatC= 3.85D-05 BMatP= 1.30D-04
 IDIUse=3 WtCom= 9.96D-01 WtEn= 4.12D-03
 Coeff-Com:  0.136D-02-0.538D-02-0.422D-01-0.532D-01 0.215D+00 0.130D+00
 Coeff-Com: -0.206D+00-0.865D+00 0.183D+01
 Coeff-En:   0.000D+00 0.000D+00 0.000D+00 0.000D+00 0.000D+00 0.000D+00
 Coeff-En:   0.000D+00 0.000D+00 0.100D+01
 Coeff:      0.135D-02-0.535D-02-0.420D-01-0.530D-01 0.214D+00 0.130D+00
 Coeff:     -0.205D+00-0.862D+00 0.182D+01
 Gap=     0.523 Goal=   None    Shift=    0.000
 Gap=     0.427 Goal=   None    Shift=    0.000
 RMSDP=1.94D-04 MaxDP=4.77D-03 DE=-4.47D-04 OVMax= 1.79D-02

 Cycle  10  Pass 1  IDiag  1:
 E= -345.258376232907     Delta-E=       -0.000131190759 Rises=F Damp=F
 DIIS: error= 1.74D-04 at cycle  10 NSaved=  10.
 NSaved=10 IEnMin=10 EnMin= -345.258376232907     IErMin=10 ErrMin= 1.74D-04
 ErrMax= 1.74D-04 EMaxC= 1.00D-01 BMatC= 6.33D-06 BMatP= 3.85D-05
 IDIUse=3 WtCom= 9.98D-01 WtEn= 1.74D-03
 Coeff-Com: -0.398D-03 0.405D-02 0.204D-01-0.219D-01-0.501D-01 0.892D-01
 Coeff-Com:  0.192D+00-0.302D+00-0.220D+00 0.129D+01
 Coeff-En:   0.000D+00 0.000D+00 0.000D+00 0.000D+00 0.000D+00 0.000D+00
 Coeff-En:   0.000D+00 0.000D+00 0.000D+00 0.100D+01
 Coeff:     -0.397D-03 0.404D-02 0.203D-01-0.218D-01-0.500D-01 0.890D-01
 Coeff:      0.192D+00-0.302D+00-0.220D+00 0.129D+01
 Gap=     0.524 Goal=   None    Shift=    0.000
 Gap=     0.426 Goal=   None    Shift=    0.000
 RMSDP=4.46D-05 MaxDP=1.04D-03 DE=-1.31D-04 OVMax= 4.30D-03

 Cycle  11  Pass 1  IDiag  1:
 E= -345.258388422209     Delta-E=       -0.000012189302 Rises=F Damp=F
 DIIS: error= 9.60D-05 at cycle  11 NSaved=  11.
 NSaved=11 IEnMin=11 EnMin= -345.258388422209     IErMin=11 ErrMin= 9.60D-05
 ErrMax= 9.60D-05 EMaxC= 1.00D-01 BMatC= 1.90D-06 BMatP= 6.33D-06
 IDIUse=1 WtCom= 1.00D+00 WtEn= 0.00D+00
 Coeff-Com: -0.267D-03 0.102D-02 0.946D-02 0.439D-02-0.353D-01-0.232D-01
 Coeff-Com:  0.943D-02 0.217D+00-0.385D+00-0.126D+00 0.133D+01
 Coeff:     -0.267D-03 0.102D-02 0.946D-02 0.439D-02-0.353D-01-0.232D-01
 Coeff:      0.943D-02 0.217D+00-0.385D+00-0.126D+00 0.133D+01
 Gap=     0.524 Goal=   None    Shift=    0.000
 Gap=     0.427 Goal=   None    Shift=    0.000
 RMSDP=2.24D-05 MaxDP=4.90D-04 DE=-1.22D-05 OVMax= 2.27D-03

 Cycle  12  Pass 1  IDiag  1:
 E= -345.258391910296     Delta-E=       -0.000003488087 Rises=F Damp=F
 DIIS: error= 5.94D-05 at cycle  12 NSaved=  12.
 NSaved=12 IEnMin=12 EnMin= -345.258391910296     IErMin=12 ErrMin= 5.94D-05
 ErrMax= 5.94D-05 EMaxC= 1.00D-01 BMatC= 6.75D-07 BMatP= 1.90D-06
 IDIUse=1 WtCom= 1.00D+00 WtEn= 0.00D+00
 Coeff-Com:  0.202D-03-0.138D-02-0.772D-02-0.443D-02 0.352D-01-0.103D-01
 Coeff-Com: -0.685D-01 0.904D-03 0.203D+00-0.299D+00-0.427D+00 0.158D+01
 Coeff:      0.202D-03-0.138D-02-0.772D-02-0.443D-02 0.352D-01-0.103D-01
 Coeff:     -0.685D-01 0.904D-03 0.203D+00-0.299D+00-0.427D+00 0.158D+01
 Gap=     0.525 Goal=   None    Shift=    0.000
 Gap=     0.427 Goal=   None    Shift=    0.000
 RMSDP=1.50D-05 MaxDP=2.85D-04 DE=-3.49D-06 OVMax= 1.52D-03

 Cycle  13  Pass 1  IDiag  1:
 E= -345.258393211156     Delta-E=       -0.000001300859 Rises=F Damp=F
 DIIS: error= 3.39D-05 at cycle  13 NSaved=  13.
 NSaved=13 IEnMin=13 EnMin= -345.258393211156     IErMin=13 ErrMin= 3.39D-05
 ErrMax= 3.39D-05 EMaxC= 1.00D-01 BMatC= 2.34D-07 BMatP= 6.75D-07
 IDIUse=1 WtCom= 1.00D+00 WtEn= 0.00D+00
 Coeff-Com:  0.601D-04-0.163D-03-0.173D-02-0.422D-02 0.146D-01 0.619D-02
 Coeff-Com:  0.547D-02-0.749D-01 0.117D+00 0.811D-01-0.422D+00-0.182D+00
 Coeff-Com:  0.146D+01
 Coeff:      0.601D-04-0.163D-03-0.173D-02-0.422D-02 0.146D-01 0.619D-02
 Coeff:      0.547D-02-0.749D-01 0.117D+00 0.811D-01-0.422D+00-0.182D+00
 Coeff:      0.146D+01
 Gap=     0.525 Goal=   None    Shift=    0.000
 Gap=     0.427 Goal=   None    Shift=    0.000
 RMSDP=8.81D-06 MaxDP=2.52D-04 DE=-1.30D-06 OVMax= 8.12D-04

 Cycle  14  Pass 1  IDiag  1:
 E= -345.258393656117     Delta-E=       -0.000000444961 Rises=F Damp=F
 DIIS: error= 1.76D-05 at cycle  14 NSaved=  14.
 NSaved=14 IEnMin=14 EnMin= -345.258393656117     IErMin=14 ErrMin= 1.76D-05
 ErrMax= 1.76D-05 EMaxC= 1.00D-01 BMatC= 6.76D-08 BMatP= 2.34D-07
 IDIUse=1 WtCom= 1.00D+00 WtEn= 0.00D+00
 Coeff-Com: -0.623D-04 0.421D-03 0.271D-02 0.114D-03-0.956D-02 0.269D-02
 Coeff-Com:  0.203D-01 0.457D-02-0.770D-01 0.106D+00 0.183D+00-0.597D+00
 Coeff-Com:  0.317D-02 0.136D+01
 Coeff:     -0.623D-04 0.421D-03 0.271D-02 0.114D-03-0.956D-02 0.269D-02
 Coeff:      0.203D-01 0.457D-02-0.770D-01 0.106D+00 0.183D+00-0.597D+00
 Coeff:      0.317D-02 0.136D+01
 Gap=     0.525 Goal=   None    Shift=    0.000
 Gap=     0.427 Goal=   None    Shift=    0.000
 RMSDP=5.19D-06 MaxDP=1.52D-04 DE=-4.45D-07 OVMax= 4.73D-04

 Cycle  15  Pass 1  IDiag  1:
 E= -345.258393784466     Delta-E=       -0.000000128350 Rises=F Damp=F
 DIIS: error= 7.38D-06 at cycle  15 NSaved=  15.
 NSaved=15 IEnMin=15 EnMin= -345.258393784466     IErMin=15 ErrMin= 7.38D-06
 ErrMax= 7.38D-06 EMaxC= 1.00D-01 BMatC= 1.57D-08 BMatP= 6.76D-08
 IDIUse=1 WtCom= 1.00D+00 WtEn= 0.00D+00
 Coeff-Com:  0.111D-04-0.120D-03-0.485D-03 0.177D-03 0.327D-03-0.945D-03
 Coeff-Com: -0.105D-01 0.158D-01-0.136D-02-0.535D-01 0.449D-01 0.210D+00
 Coeff-Com: -0.306D+00-0.524D+00 0.163D+01
 Coeff:      0.111D-04-0.120D-03-0.485D-03 0.177D-03 0.327D-03-0.945D-03
 Coeff:     -0.105D-01 0.158D-01-0.136D-02-0.535D-01 0.449D-01 0.210D+00
 Coeff:     -0.306D+00-0.524D+00 0.163D+01
 Gap=     0.525 Goal=   None    Shift=    0.000
 Gap=     0.427 Goal=   None    Shift=    0.000
 RMSDP=2.92D-06 MaxDP=7.50D-05 DE=-1.28D-07 OVMax= 2.48D-04

 Cycle  16  Pass 1  IDiag  1:
 E= -345.258393815131     Delta-E=       -0.000000030664 Rises=F Damp=F
 DIIS: error= 5.30D-06 at cycle  16 NSaved=  16.
 NSaved=16 IEnMin=16 EnMin= -345.258393815131     IErMin=16 ErrMin= 5.30D-06
 ErrMax= 5.30D-06 EMaxC= 1.00D-01 BMatC= 3.78D-09 BMatP= 1.57D-08
 IDIUse=1 WtCom= 1.00D+00 WtEn= 0.00D+00
 Coeff-Com:  0.723D-05-0.398D-04-0.366D-03-0.116D-03 0.203D-02-0.798D-03
 Coeff-Com: -0.904D-03-0.331D-02 0.142D-01-0.789D-02-0.491D-01 0.877D-01
 Coeff-Com:  0.622D-01-0.181D+00-0.399D+00 0.148D+01
 Coeff:      0.723D-05-0.398D-04-0.366D-03-0.116D-03 0.203D-02-0.798D-03
 Coeff:     -0.904D-03-0.331D-02 0.142D-01-0.789D-02-0.491D-01 0.877D-01
 Coeff:      0.622D-01-0.181D+00-0.399D+00 0.148D+01
 Gap=     0.525 Goal=   None    Shift=    0.000
 Gap=     0.427 Goal=   None    Shift=    0.000
 RMSDP=1.03D-06 MaxDP=3.04D-05 DE=-3.07D-08 OVMax= 6.64D-05

 Cycle  17  Pass 1  IDiag  1:
 E= -345.258393820569     Delta-E=       -0.000000005438 Rises=F Damp=F
 DIIS: error= 2.81D-06 at cycle  17 NSaved=  17.
 NSaved=17 IEnMin=17 EnMin= -345.258393820569     IErMin=17 ErrMin= 2.81D-06
 ErrMax= 2.81D-06 EMaxC= 1.00D-01 BMatC= 1.01D-09 BMatP= 3.78D-09
 IDIUse=1 WtCom= 1.00D+00 WtEn= 0.00D+00
 Coeff-Com: -0.340D-05 0.351D-04 0.147D-03-0.378D-04-0.283D-03 0.363D-03
 Coeff-Com:  0.298D-02-0.404D-02-0.139D-02 0.149D-01-0.712D-02-0.629D-01
 Coeff-Com:  0.699D-01 0.156D+00-0.379D+00-0.128D+00 0.134D+01
 Coeff:     -0.340D-05 0.351D-04 0.147D-03-0.378D-04-0.283D-03 0.363D-03
 Coeff:      0.298D-02-0.404D-02-0.139D-02 0.149D-01-0.712D-02-0.629D-01
 Coeff:      0.699D-01 0.156D+00-0.379D+00-0.128D+00 0.134D+01
 Gap=     0.525 Goal=   None    Shift=    0.000
 Gap=     0.427 Goal=   None    Shift=    0.000
 RMSDP=4.36D-07 MaxDP=1.59D-05 DE=-5.44D-09 OVMax= 2.50D-05

 Cycle  18  Pass 1  IDiag  1:
 E= -345.258393821976     Delta-E=       -0.000000001408 Rises=F Damp=F
 DIIS: error= 1.67D-06 at cycle  18 NSaved=  18.
 NSaved=18 IEnMin=18 EnMin= -345.258393821976     IErMin=18 ErrMin= 1.67D-06
 ErrMax= 1.67D-06 EMaxC= 1.00D-01 BMatC= 3.87D-10 BMatP= 1.01D-09
 IDIUse=1 WtCom= 1.00D+00 WtEn= 0.00D+00
 Coeff-Com: -0.840D-06 0.566D-08 0.474D-04 0.634D-04-0.589D-03 0.311D-03
 Coeff-Com: -0.661D-03 0.183D-02-0.355D-02-0.275D-02 0.160D-01-0.404D-02
 Coeff-Com: -0.371D-01-0.608D-02 0.230D+00-0.310D+00-0.596D+00 0.171D+01
 Coeff:     -0.840D-06 0.566D-08 0.474D-04 0.634D-04-0.589D-03 0.311D-03
 Coeff:     -0.661D-03 0.183D-02-0.355D-02-0.275D-02 0.160D-01-0.404D-02
 Coeff:     -0.371D-01-0.608D-02 0.230D+00-0.310D+00-0.596D+00 0.171D+01
 Gap=     0.525 Goal=   None    Shift=    0.000
 Gap=     0.427 Goal=   None    Shift=    0.000
 RMSDP=3.49D-07 MaxDP=9.92D-06 DE=-1.41D-09 OVMax= 2.30D-05

 Cycle  19  Pass 1  IDiag  1:
 E= -345.258393822636     Delta-E=       -0.000000000659 Rises=F Damp=F
 DIIS: error= 8.87D-07 at cycle  19 NSaved=  19.
 NSaved=19 IEnMin=19 EnMin= -345.258393822636     IErMin=19 ErrMin= 8.87D-07
 ErrMax= 8.87D-07 EMaxC= 1.00D-01 BMatC= 1.38D-10 BMatP= 3.87D-10
 IDIUse=1 WtCom= 1.00D+00 WtEn= 0.00D+00
 Coeff-Com: -0.537D-06 0.338D-05 0.131D-04 0.605D-04-0.346D-04-0.260D-03
 Coeff-Com:  0.598D-04 0.103D-02-0.244D-03-0.161D-02-0.426D-03 0.149D-01
 Coeff-Com: -0.841D-02-0.343D-01 0.163D-01 0.200D+00-0.286D+00-0.732D+00
 Coeff-Com:  0.183D+01
 Coeff:     -0.537D-06 0.338D-05 0.131D-04 0.605D-04-0.346D-04-0.260D-03
 Coeff:      0.598D-04 0.103D-02-0.244D-03-0.161D-02-0.426D-03 0.149D-01
 Coeff:     -0.841D-02-0.343D-01 0.163D-01 0.200D+00-0.286D+00-0.732D+00
 Coeff:      0.183D+01
 Gap=     0.525 Goal=   None    Shift=    0.000
 Gap=     0.427 Goal=   None    Shift=    0.000
 RMSDP=2.42D-07 MaxDP=8.79D-06 DE=-6.59D-10 OVMax= 1.10D-05

 Cycle  20  Pass 1  IDiag  1:
 E= -345.258393822904     Delta-E=       -0.000000000268 Rises=F Damp=F
 DIIS: error= 3.79D-07 at cycle  20 NSaved=  20.
 NSaved=20 IEnMin=20 EnMin= -345.258393822904     IErMin=20 ErrMin= 3.79D-07
 ErrMax= 3.79D-07 EMaxC= 1.00D-01 BMatC= 3.13D-11 BMatP= 1.38D-10
 IDIUse=1 WtCom= 1.00D+00 WtEn= 0.00D+00
 Coeff-Com: -0.104D-06 0.210D-05-0.182D-05-0.222D-04 0.100D-03 0.291D-04
 Coeff-Com:  0.416D-03-0.119D-02 0.994D-03 0.206D-02-0.489D-02-0.716D-02
 Coeff-Com:  0.191D-01 0.163D-01-0.894D-01 0.357D-01 0.304D+00-0.351D+00
 Coeff-Com: -0.553D+00 0.163D+01
 Coeff:     -0.104D-06 0.210D-05-0.182D-05-0.222D-04 0.100D-03 0.291D-04
 Coeff:      0.416D-03-0.119D-02 0.994D-03 0.206D-02-0.489D-02-0.716D-02
 Coeff:      0.191D-01 0.163D-01-0.894D-01 0.357D-01 0.304D+00-0.351D+00
 Coeff:     -0.553D+00 0.163D+01
 Gap=     0.525 Goal=   None    Shift=    0.000
 Gap=     0.427 Goal=   None    Shift=    0.000
 RMSDP=1.20D-07 MaxDP=3.93D-06 DE=-2.68D-10 OVMax= 5.82D-06

 Cycle  21  Pass 1  IDiag  1:
 E= -345.258393822961     Delta-E=       -0.000000000058 Rises=F Damp=F
 DIIS: error= 1.43D-07 at cycle  21 NSaved=  20.
 NSaved=20 IEnMin=20 EnMin= -345.258393822961     IErMin=20 ErrMin= 1.43D-07
 ErrMax= 1.43D-07 EMaxC= 1.00D-01 BMatC= 4.04D-12 BMatP= 3.13D-11
 IDIUse=1 WtCom= 1.00D+00 WtEn= 0.00D+00
 Coeff-Com:  0.275D-07 0.918D-06-0.659D-05-0.204D-04 0.544D-04 0.806D-05
 Coeff-Com: -0.133D-03-0.579D-04 0.262D-03 0.426D-03-0.291D-02 0.167D-02
 Coeff-Com:  0.320D-02 0.305D-02-0.349D-01 0.302D-01 0.138D+00-0.225D+00
 Coeff-Com: -0.241D+00 0.133D+01
 Coeff:      0.275D-07 0.918D-06-0.659D-05-0.204D-04 0.544D-04 0.806D-05
 Coeff:     -0.133D-03-0.579D-04 0.262D-03 0.426D-03-0.291D-02 0.167D-02
 Coeff:      0.320D-02 0.305D-02-0.349D-01 0.302D-01 0.138D+00-0.225D+00
 Coeff:     -0.241D+00 0.133D+01
 Gap=     0.525 Goal=   None    Shift=    0.000
 Gap=     0.427 Goal=   None    Shift=    0.000
 RMSDP=3.75D-08 MaxDP=1.03D-06 DE=-5.78D-11 OVMax= 2.39D-06

 Cycle  22  Pass 1  IDiag  1:
 E= -345.258393822965     Delta-E=       -0.000000000004 Rises=F Damp=F
 DIIS: error= 3.87D-08 at cycle  22 NSaved=  20.
 NSaved=20 IEnMin=20 EnMin= -345.258393822965     IErMin=20 ErrMin= 3.87D-08
 ErrMax= 3.87D-08 EMaxC= 1.00D-01 BMatC= 6.56D-13 BMatP= 4.04D-12
 IDIUse=1 WtCom= 1.00D+00 WtEn= 0.00D+00
 Coeff-Com:  0.129D-05 0.458D-05-0.154D-04-0.104D-04-0.429D-04 0.183D-03
 Coeff-Com: -0.165D-03-0.278D-03 0.716D-03 0.109D-02-0.256D-02-0.268D-02
 Coeff-Com:  0.131D-01-0.463D-02-0.436D-01 0.443D-01 0.953D-01-0.233D+00
 Coeff-Com: -0.593D-01 0.119D+01
 Coeff:      0.129D-05 0.458D-05-0.154D-04-0.104D-04-0.429D-04 0.183D-03
 Coeff:     -0.165D-03-0.278D-03 0.716D-03 0.109D-02-0.256D-02-0.268D-02
 Coeff:      0.131D-01-0.463D-02-0.436D-01 0.443D-01 0.953D-01-0.233D+00
 Coeff:     -0.593D-01 0.119D+01
 Gap=     0.525 Goal=   None    Shift=    0.000
 Gap=     0.427 Goal=   None    Shift=    0.000
 RMSDP=1.12D-08 MaxDP=2.45D-07 DE=-3.52D-12 OVMax= 7.95D-07

 Cycle  23  Pass 1  IDiag  1:
 E= -345.258393822966     Delta-E=       -0.000000000001 Rises=F Damp=F
 DIIS: error= 1.83D-08 at cycle  23 NSaved=  20.
 NSaved=20 IEnMin=20 EnMin= -345.258393822966     IErMin=20 ErrMin= 1.83D-08
 ErrMax= 1.83D-08 EMaxC= 1.00D-01 BMatC= 1.39D-13 BMatP= 6.56D-13
 IDIUse=1 WtCom= 1.00D+00 WtEn= 0.00D+00
 Coeff-Com:  0.471D-06 0.279D-05-0.773D-05 0.261D-05 0.612D-05 0.191D-04
 Coeff-Com: -0.371D-04-0.108D-03 0.418D-03-0.221D-03-0.378D-03-0.942D-03
 Coeff-Com:  0.523D-02-0.165D-02-0.246D-01 0.243D-01 0.706D-01-0.225D+00
 Coeff-Com: -0.161D+00 0.131D+01
 Coeff:      0.471D-06 0.279D-05-0.773D-05 0.261D-05 0.612D-05 0.191D-04
 Coeff:     -0.371D-04-0.108D-03 0.418D-03-0.221D-03-0.378D-03-0.942D-03
 Coeff:      0.523D-02-0.165D-02-0.246D-01 0.243D-01 0.706D-01-0.225D+00
 Coeff:     -0.161D+00 0.131D+01
 Gap=     0.525 Goal=   None    Shift=    0.000
 Gap=     0.427 Goal=   None    Shift=    0.000
 RMSDP=4.36D-09 MaxDP=1.01D-07 DE=-1.48D-12 OVMax= 1.84D-07

 SCF Done:  E(UHF) =  -345.258393823     A.U. after   23 cycles
             Convg  =    0.4359D-08             -V/T =  2.0014
 <Sx>= 0.0000 <Sy>= 0.0000 <Sz>= 0.5000 <S**2>= 0.9973 S= 0.6168
 <L.S>= 0.000000000000E+00
 KE= 3.447925837959D+02 PE=-1.418023736636D+03 EE= 4.238675400391D+02
 Annihilation of the first spin contaminant:
 S**2 before annihilation     0.9973,   after     0.7757
 Leave Link  502 at Mon Apr 30 12:22:00 2018, MaxMem=  671088640 cpu:     509.9
 (Enter /shared/apps/gaussian/G09_LINUX_LINDA/g09/l801.exe)
 Range of M.O.s used for correlation:     1   127
 NBasis=   127 NAE=    29 NBE=    28 NFC=     0 NFV=     0
 NROrb=    127 NOA=    29 NOB=    28 NVA=    98 NVB=    99
 Leave Link  801 at Mon Apr 30 12:22:00 2018, MaxMem=  671088640 cpu:       0.4
 (Enter /shared/apps/gaussian/G09_LINUX_LINDA/g09/l1101.exe)
 Using compressed storage, NAtomX=    18.
 Will process  19 centers per pass.
 Leave Link 1101 at Mon Apr 30 12:22:01 2018, MaxMem=  671088640 cpu:       7.7
 (Enter /shared/apps/gaussian/G09_LINUX_LINDA/g09/l1102.exe)
 Symmetrizing basis deriv contribution to polar:
 IMax=3 JMax=2 DiffMx= 0.00D+00
 Leave Link 1102 at Mon Apr 30 12:22:01 2018, MaxMem=  671088640 cpu:       1.0
 (Enter /shared/apps/gaussian/G09_LINUX_LINDA/g09/l1110.exe)
 Forming Gx(P) for the SCF density, NAtomX=    18.
 Integral derivatives from FoFDir/FoFCou, PRISM(SPDF).
 Do as many integral derivatives as possible in FoFDir.
 G2DrvN: MDV=     671088392.
 G2DrvN: will do    19 centers at a time, making    1 passes doing MaxLOS=2.
 Calling FoFCou, ICntrl=  3107 FMM=F I1Cent=   0 AccDes= 0.00D+00.
 FoFCou: FMM=F IPFlag=           0 FMFlag=      100000 FMFlg1=           0
         NFxFlg=           0 DoJE=F BraDBF=F KetDBF=F FulRan=T
         Omega=  0.000000  0.000000  1.000000  0.000000  0.000000 ICntrl=    3107 IOpCl=  1
         NMat0=    1 NMatS0=    1 NMatT0=    0 NMatD0=    1 NMtDS0=    0 NMtDT0=    0
         I1Cent=           0 NGrid=           0.
 Symmetry not used in FoFCou.
 FoFDir/FoFCou used for L=0 through L=2.
 End of G2Drv Frequency-dependent properties file   721 does not exist.
 End of G2Drv Frequency-dependent properties file   722 does not exist.
 Leave Link 1110 at Mon Apr 30 12:22:04 2018, MaxMem=  671088640 cpu:      30.2
 (Enter /shared/apps/gaussian/G09_LINUX_LINDA/g09/l1002.exe)
 Minotr:  UHF open shell wavefunction.
          IDoAtm=111111111111111111
          Direct CPHF calculation.
          Differentiating once with respect to nuclear coordinates.
          Requested convergence is 1.0D-06 RMS, and 1.0D-05 maximum.
          Secondary convergence is 1.0D-12 RMS, and 1.0D-12 maximum.
          NewPWx=T KeepS1=F KeepF1=F KeepIn=T MapXYZ=F SortEE=F KeepMc=T.
          MDV=     671088456 using IRadAn=       2.
          Keep R1 and R2 ints in memory in canonical form, NReq=66894031.
 Symmetry not used in FoFDir.
 MinBra= 0 MaxBra= 2 Meth= 1.
 IRaf=       0 NMat=   1 IRICut=       1 DoRegI=T DoRafI=F ISym2E= 0 JSym2E=0.
          Solving linear equations simultaneously, MaxMat=       0.
          There are    57 degrees of freedom in the 1st order CPHF.  IDoFFX=5.
     51 vectors produced by pass  0 Test12= 9.85D-11 1.75D-07 XBig12= 1.12D-01 1.43D-01.
 AX will form    51 AO Fock derivatives at one time.
     51 vectors produced by pass  1 Test12= 9.85D-11 1.75D-07 XBig12= 9.77D-03 5.05D-02.
     51 vectors produced by pass  2 Test12= 9.85D-11 1.75D-07 XBig12= 6.19D-04 5.07D-03.
     51 vectors produced by pass  3 Test12= 9.85D-11 1.75D-07 XBig12= 1.98D-05 8.95D-04.
     51 vectors produced by pass  4 Test12= 9.85D-11 1.75D-07 XBig12= 3.92D-07 7.63D-05.
     33 vectors produced by pass  5 Test12= 9.85D-11 1.75D-07 XBig12= 4.86D-09 8.95D-06.
      8 vectors produced by pass  6 Test12= 9.85D-11 1.75D-07 XBig12= 6.41D-11 1.03D-06.
 Inverted reduced A of dimension   296 with in-core refinement.
 End of Minotr Frequency-dependent properties file   721 does not exist.
 End of Minotr Frequency-dependent properties file   722 does not exist.
 Leave Link 1002 at Mon Apr 30 12:22:26 2018, MaxMem=  671088640 cpu:     220.2
 (Enter /shared/apps/gaussian/G09_LINUX_LINDA/g09/l601.exe)
 Copying SCF densities to generalized density rwf, IOpCl= 1 IROHF=0.

 **********************************************************************

            Population analysis using the SCF density.

 **********************************************************************

 Orbital symmetries:
 Alpha Orbitals:
       Occupied  (A) (A) (A) (A) (A) (A) (A) (A) (A) (A) (A) (A)
                 (A) (A) (A) (A) (A) (A) (A) (A) (A) (A) (A) (A)
                 (A) (A) (A) (A) (A)
       Virtual   (A) (A) (A) (A) (A) (A) (A) (A) (A) (A) (A) (A)
                 (A) (A) (A) (A) (A) (A) (A) (A) (A) (A) (A) (A)
                 (A) (A) (A) (A) (A) (A) (A) (A) (A) (A) (A) (A)
                 (A) (A) (A) (A) (A) (A) (A) (A) (A) (A) (A) (A)
                 (A) (A) (A) (A) (A) (A) (A) (A) (A) (A) (A) (A)
                 (A) (A) (A) (A) (A) (A) (A) (A) (A) (A) (A) (A)
                 (A) (A) (A) (A) (A) (A) (A) (A) (A) (A) (A) (A)
                 (A) (A) (A) (A) (A) (A) (A) (A) (A) (A) (A) (A)
                 (A) (A)
 Beta  Orbitals:
       Occupied  (A) (A) (A) (A) (A) (A) (A) (A) (A) (A) (A) (A)
                 (A) (A) (A) (A) (A) (A) (A) (A) (A) (A) (A) (A)
                 (A) (A) (A) (A)
       Virtual   (A) (A) (A) (A) (A) (A) (A) (A) (A) (A) (A) (A)
                 (A) (A) (A) (A) (A) (A) (A) (A) (A) (A) (A) (A)
                 (A) (A) (A) (A) (A) (A) (A) (A) (A) (A) (A) (A)
                 (A) (A) (A) (A) (A) (A) (A) (A) (A) (A) (A) (A)
                 (A) (A) (A) (A) (A) (A) (A) (A) (A) (A) (A) (A)
                 (A) (A) (A) (A) (A) (A) (A) (A) (A) (A) (A) (A)
                 (A) (A) (A) (A) (A) (A) (A) (A) (A) (A) (A) (A)
                 (A) (A) (A) (A) (A) (A) (A) (A) (A) (A) (A) (A)
                 (A) (A) (A)
 The electronic state is 2-A.
 Alpha  occ. eigenvalues --  -20.64376 -20.62596 -11.25072 -11.24407 -11.22562
 Alpha  occ. eigenvalues --  -11.22509 -11.22472  -1.50966  -1.18080  -1.11481
 Alpha  occ. eigenvalues --   -1.01534  -0.95139  -0.88307  -0.74134  -0.71993
 Alpha  occ. eigenvalues --   -0.71265  -0.64756  -0.62303  -0.61377  -0.61063
 Alpha  occ. eigenvalues --   -0.55843  -0.54966  -0.53547  -0.51766  -0.51235
 Alpha  occ. eigenvalues --   -0.48611  -0.48275  -0.44127  -0.33639
 Alpha virt. eigenvalues --    0.18835   0.22065   0.24275   0.26371   0.26802
 Alpha virt. eigenvalues --    0.29358   0.31419   0.31587   0.33132   0.34041
 Alpha virt. eigenvalues --    0.35888   0.38038   0.38880   0.42586   0.45849
 Alpha virt. eigenvalues --    0.49963   0.59470   0.67583   0.70412   0.74124
 Alpha virt. eigenvalues --    0.75554   0.77324   0.79512   0.83100   0.85114
 Alpha virt. eigenvalues --    0.92835   0.94153   0.95356   0.98316   0.98962
 Alpha virt. eigenvalues --    1.02832   1.05059   1.07345   1.07940   1.12372
 Alpha virt. eigenvalues --    1.13239   1.14034   1.16991   1.17332   1.18784
 Alpha virt. eigenvalues --    1.19727   1.21408   1.21763   1.24066   1.25364
 Alpha virt. eigenvalues --    1.27873   1.30203   1.31645   1.35266   1.41142
 Alpha virt. eigenvalues --    1.45692   1.54103   1.56694   1.60959   1.66183
 Alpha virt. eigenvalues --    1.68851   1.71328   1.77746   1.80075   1.81106
 Alpha virt. eigenvalues --    1.91316   1.91623   2.04540   2.10870   2.13602
 Alpha virt. eigenvalues --    2.14290   2.17340   2.18485   2.20802   2.32462
 Alpha virt. eigenvalues --    2.34130   2.35078   2.42943   2.46655   2.49232
 Alpha virt. eigenvalues --    2.54655   2.56670   2.62587   2.68449   2.74962
 Alpha virt. eigenvalues --    2.75844   2.75921   2.78254   2.83717   2.85986
 Alpha virt. eigenvalues --    2.86348   2.89741   3.01420   3.23831   3.29775
 Alpha virt. eigenvalues --    3.40142   3.96009   4.20172   4.52765   4.66824
 Alpha virt. eigenvalues --    4.71042   4.75041   4.96286
  Beta  occ. eigenvalues --  -20.62487 -20.61556 -11.23797 -11.23602 -11.22827
  Beta  occ. eigenvalues --  -11.22742 -11.22658  -1.47278  -1.12536  -1.09943
  Beta  occ. eigenvalues --   -0.99873  -0.95184  -0.86296  -0.71922  -0.71113
  Beta  occ. eigenvalues --   -0.64699  -0.63095  -0.61303  -0.59501  -0.58751
  Beta  occ. eigenvalues --   -0.55235  -0.54427  -0.53443  -0.51428  -0.48472
  Beta  occ. eigenvalues --   -0.45998  -0.45552  -0.35493
  Beta virt. eigenvalues --    0.07210   0.20505   0.21920   0.24478   0.26649
  Beta virt. eigenvalues --    0.26761   0.29526   0.31858   0.32840   0.33603
  Beta virt. eigenvalues --    0.35597   0.36448   0.38727   0.39900   0.43225
  Beta virt. eigenvalues --    0.49343   0.50568   0.59713   0.67783   0.70935
  Beta virt. eigenvalues --    0.74075   0.76508   0.78659   0.79715   0.84691
  Beta virt. eigenvalues --    0.86642   0.91411   0.95428   0.98281   0.99615
  Beta virt. eigenvalues --    0.99813   1.04063   1.05981   1.08023   1.08505
  Beta virt. eigenvalues --    1.12697   1.13547   1.13770   1.16941   1.17547
  Beta virt. eigenvalues --    1.19850   1.20981   1.21797   1.22636   1.24222
  Beta virt. eigenvalues --    1.25727   1.28513   1.31827   1.32834   1.35754
  Beta virt. eigenvalues --    1.41636   1.46170   1.55551   1.58156   1.62097
  Beta virt. eigenvalues --    1.68412   1.70202   1.73811   1.77987   1.80368
  Beta virt. eigenvalues --    1.81603   1.93298   1.93922   2.06566   2.11674
  Beta virt. eigenvalues --    2.14619   2.15044   2.19315   2.20265   2.21616
  Beta virt. eigenvalues --    2.33701   2.35655   2.36485   2.43116   2.47268
  Beta virt. eigenvalues --    2.50306   2.55377   2.56730   2.62495   2.68561
  Beta virt. eigenvalues --    2.75918   2.76312   2.77038   2.80488   2.84565
  Beta virt. eigenvalues --    2.86700   2.87119   2.91516   3.02186   3.24115
  Beta virt. eigenvalues --    3.30761   3.40331   3.96604   4.21921   4.53286
  Beta virt. eigenvalues --    4.66897   4.70878   4.76042   4.96841
          Condensed to atoms (all electrons):
              1          2          3          4          5          6
     1  O    8.308442   0.059297  -0.003504   0.000408  -0.060202   0.000005
     2  O    0.059297   8.149552   0.005614  -0.000664  -0.002911  -0.000008
     3  C   -0.003504   0.005614   5.019352   0.604661   0.359777  -0.043978
     4  C    0.000408  -0.000664   0.604661   4.980671  -0.050734   0.344354
     5  C   -0.060202  -0.002911   0.359777  -0.050734   5.311765  -0.007200
     6  C    0.000005  -0.000008  -0.043978   0.344354  -0.007200   5.107429
     7  C   -0.000002  -0.000004  -0.043643   0.345948   0.003343  -0.066457
     8  H   -0.027852   0.255127   0.002445   0.000889  -0.000612  -0.000014
     9  H   -0.000039   0.000704   0.396184  -0.039827  -0.038330   0.003429
    10  H    0.040938  -0.027552  -0.038347  -0.003254   0.230705   0.000261
    11  H   -0.000414   0.000498  -0.032804   0.002236   0.386112   0.000128
    12  H    0.000075   0.000305  -0.037004   0.000078   0.385107  -0.000461
    13  H    0.000000   0.000000   0.000044  -0.041425   0.000196   0.389834
    14  H    0.000025  -0.000003  -0.002965  -0.035490  -0.000711   0.395114
    15  H   -0.000004   0.000004   0.000735  -0.041586   0.000181   0.391241
    16  H    0.000000   0.000000  -0.000538  -0.042211  -0.000096  -0.000830
    17  H    0.000000   0.000002   0.000445  -0.042347  -0.000085  -0.001478
    18  H    0.000000  -0.000004  -0.000762  -0.040872   0.000145   0.003658
              7          8          9         10         11         12
     1  O   -0.000002  -0.027852  -0.000039   0.040938  -0.000414   0.000075
     2  O   -0.000004   0.255127   0.000704  -0.027552   0.000498   0.000305
     3  C   -0.043643   0.002445   0.396184  -0.038347  -0.032804  -0.037004
     4  C    0.345948   0.000889  -0.039827  -0.003254   0.002236   0.000078
     5  C    0.003343  -0.000612  -0.038330   0.230705   0.386112   0.385107
     6  C   -0.066457  -0.000014   0.003429   0.000261   0.000128  -0.000461
     7  C    5.102864   0.000001  -0.005126  -0.000045  -0.000075   0.000029
     8  H    0.000001   0.315753   0.000004  -0.001671   0.000016   0.000023
     9  H   -0.005126   0.000004   0.487638   0.000212  -0.002895   0.002688
    10  H   -0.000045  -0.001671   0.000212   0.507487  -0.023233  -0.018514
    11  H   -0.000075   0.000016  -0.002895  -0.023233   0.484742  -0.022552
    12  H    0.000029   0.000023   0.002688  -0.018514  -0.022552   0.493395
    13  H   -0.001571   0.000001  -0.000109  -0.000034   0.000008   0.000057
    14  H    0.003630   0.000000   0.000037  -0.000057   0.000053   0.000583
    15  H   -0.002219  -0.000022  -0.000100   0.000096  -0.000007  -0.000087
    16  H    0.390061   0.000001   0.000110  -0.000004   0.000005   0.000006
    17  H    0.388277  -0.000027   0.000145   0.000019  -0.000001  -0.000004
    18  H    0.395171   0.000002   0.003027  -0.000002  -0.000008   0.000005
             13         14         15         16         17         18
     1  O    0.000000   0.000025  -0.000004   0.000000   0.000000   0.000000
     2  O    0.000000  -0.000003   0.000004   0.000000   0.000002  -0.000004
     3  C    0.000044  -0.002965   0.000735  -0.000538   0.000445  -0.000762
     4  C   -0.041425  -0.035490  -0.041586  -0.042211  -0.042347  -0.040872
     5  C    0.000196  -0.000711   0.000181  -0.000096  -0.000085   0.000145
     6  C    0.389834   0.395114   0.391241  -0.000830  -0.001478   0.003658
     7  C   -0.001571   0.003630  -0.002219   0.390061   0.388277   0.395171
     8  H    0.000001   0.000000  -0.000022   0.000001  -0.000027   0.000002
     9  H   -0.000109   0.000037  -0.000100   0.000110   0.000145   0.003027
    10  H   -0.000034  -0.000057   0.000096  -0.000004   0.000019  -0.000002
    11  H    0.000008   0.000053  -0.000007   0.000005  -0.000001  -0.000008
    12  H    0.000057   0.000583  -0.000087   0.000006  -0.000004   0.000005
    13  H    0.534263  -0.024825  -0.033044   0.002569  -0.000375  -0.000057
    14  H   -0.024825   0.511795  -0.025846  -0.000040  -0.000065  -0.000092
    15  H   -0.033044  -0.025846   0.536957  -0.000396   0.002686  -0.000035
    16  H    0.002569  -0.000040  -0.000396   0.538423  -0.034629  -0.024235
    17  H   -0.000375  -0.000065   0.002686  -0.034629   0.545917  -0.024940
    18  H   -0.000057  -0.000092  -0.000035  -0.024235  -0.024940   0.512343
 Mulliken atomic charges:
              1
     1  O   -0.317173
     2  O   -0.439955
     3  C   -0.185713
     4  C    0.059165
     5  C   -0.516449
     6  C   -0.515027
     7  C   -0.510181
     8  H    0.455936
     9  H    0.192248
    10  H    0.332996
    11  H    0.208191
    12  H    0.196271
    13  H    0.174468
    14  H    0.178857
    15  H    0.171446
    16  H    0.171803
    17  H    0.166461
    18  H    0.176655
 Sum of Mulliken atomic charges =   0.00000
 Mulliken charges with hydrogens summed into heavy atoms:
              1
     1  O    0.015823
     2  O    0.015981
     3  C    0.006535
     4  C    0.059165
     5  C   -0.111987
     6  C    0.009745
     7  C    0.004739
 Sum of Mulliken charges with hydrogens summed into heavy atoms =   0.00000
          Atomic-Atomic Spin Densities.
              1          2          3          4          5          6
     1  O    0.775293  -0.052324   0.007730   0.000715  -0.070694  -0.000021
     2  O   -0.052324   0.025340  -0.003054  -0.000517   0.008965   0.000008
     3  C    0.007730  -0.003054  -0.720170   0.029426  -0.039039   0.000106
     4  C    0.000715  -0.000517   0.029426   0.842033  -0.013217  -0.028037
     5  C   -0.070694   0.008965  -0.039039  -0.013217   0.781300   0.000339
     6  C   -0.000021   0.000008   0.000106  -0.028037   0.000339  -0.086915
     7  C    0.000002  -0.000003  -0.000323  -0.024650   0.000026   0.002260
     8  H   -0.000057  -0.000439  -0.001052   0.000418  -0.000314  -0.000014
     9  H   -0.000106   0.000098   0.007528  -0.002160  -0.001529   0.000040
    10  H   -0.077592   0.019682   0.019782  -0.000123   0.070747  -0.000073
    11  H    0.003282  -0.000592   0.004774  -0.000154  -0.023945  -0.000017
    12  H    0.001744  -0.000147   0.003545  -0.000579  -0.019753   0.000341
    13  H    0.000001   0.000000  -0.000029  -0.012585   0.000117   0.007260
    14  H    0.000001   0.000001   0.000829  -0.002153  -0.000430   0.003493
    15  H   -0.000009   0.000003   0.000071  -0.011735   0.000130   0.007724
    16  H    0.000000   0.000000  -0.000164  -0.012851   0.000025   0.000450
    17  H   -0.000001   0.000005   0.000238  -0.013244   0.000021   0.000621
    18  H    0.000000   0.000000   0.000951  -0.002218  -0.000003  -0.000062
              7          8          9         10         11         12
     1  O    0.000002  -0.000057  -0.000106  -0.077592   0.003282   0.001744
     2  O   -0.000003  -0.000439   0.000098   0.019682  -0.000592  -0.000147
     3  C   -0.000323  -0.001052   0.007528   0.019782   0.004774   0.003545
     4  C   -0.024650   0.000418  -0.002160  -0.000123  -0.000154  -0.000579
     5  C    0.000026  -0.000314  -0.001529   0.070747  -0.023945  -0.019753
     6  C    0.002260  -0.000014   0.000040  -0.000073  -0.000017   0.000341
     7  C   -0.092681  -0.000012   0.000206   0.000020   0.000008   0.000007
     8  H   -0.000012  -0.002061  -0.000022   0.001168  -0.000008  -0.000008
     9  H    0.000206  -0.000022   0.041017  -0.000095  -0.000192  -0.000046
    10  H    0.000020   0.001168  -0.000095  -0.263895   0.009781   0.007458
    11  H    0.000008  -0.000008  -0.000192   0.009781  -0.039529   0.002769
    12  H    0.000007  -0.000008  -0.000046   0.007458   0.002769  -0.036150
    13  H    0.000598   0.000000  -0.000011   0.000003   0.000004   0.000041
    14  H   -0.000081   0.000000   0.000004   0.000031   0.000008   0.000044
    15  H    0.000388  -0.000010   0.000003  -0.000010  -0.000002  -0.000037
    16  H    0.007914   0.000000  -0.000036   0.000001   0.000001   0.000002
    17  H    0.006891  -0.000011   0.000047  -0.000004  -0.000001  -0.000002
    18  H    0.003548   0.000000  -0.000070   0.000000   0.000001   0.000000
             13         14         15         16         17         18
     1  O    0.000001   0.000001  -0.000009   0.000000  -0.000001   0.000000
     2  O    0.000000   0.000001   0.000003   0.000000   0.000005   0.000000
     3  C   -0.000029   0.000829   0.000071  -0.000164   0.000238   0.000951
     4  C   -0.012585  -0.002153  -0.011735  -0.012851  -0.013244  -0.002218
     5  C    0.000117  -0.000430   0.000130   0.000025   0.000021  -0.000003
     6  C    0.007260   0.003493   0.007724   0.000450   0.000621  -0.000062
     7  C    0.000598  -0.000081   0.000388   0.007914   0.006891   0.003548
     8  H    0.000000   0.000000  -0.000010   0.000000  -0.000011   0.000000
     9  H   -0.000011   0.000004   0.000003  -0.000036   0.000047  -0.000070
    10  H    0.000003   0.000031  -0.000010   0.000001  -0.000004   0.000000
    11  H    0.000004   0.000008  -0.000002   0.000001  -0.000001   0.000001
    12  H    0.000041   0.000044  -0.000037   0.000002  -0.000002   0.000000
    13  H    0.036584  -0.000849  -0.007061   0.001611  -0.000628  -0.000002
    14  H   -0.000849   0.003573  -0.000531  -0.000003   0.000002   0.000000
    15  H   -0.007061  -0.000531   0.032404  -0.000644   0.001640  -0.000003
    16  H    0.001611  -0.000003  -0.000644   0.037336  -0.008164  -0.000647
    17  H   -0.000628   0.000002   0.001640  -0.008164   0.039714  -0.000768
    18  H   -0.000002   0.000000  -0.000003  -0.000647  -0.000768   0.003337
 Mulliken atomic spin densities:
              1
     1  O    0.587962
     2  O   -0.002973
     3  C   -0.688852
     4  C    0.748369
     5  C    0.692746
     6  C   -0.092495
     7  C   -0.095882
     8  H   -0.002421
     9  H    0.044675
    10  H   -0.213118
    11  H   -0.043809
    12  H   -0.040770
    13  H    0.025055
    14  H    0.003940
    15  H    0.022321
    16  H    0.024830
    17  H    0.026357
    18  H    0.004064
 Sum of Mulliken atomic spin densities =   1.00000
 APT atomic charges:
              1
     1  O   -0.346480
     2  O   -0.442948
     3  C   -0.513956
     4  C    0.253012
     5  C   -1.140144
     6  C   -1.347115
     7  C   -1.438875
     8  H    0.456848
     9  H    0.429493
    10  H    0.406971
    11  H    0.554715
    12  H    0.442612
    13  H    0.575491
    14  H    0.312750
    15  H    0.423194
    16  H    0.578334
    17  H    0.414976
    18  H    0.381122
 Sum of APT charges=   0.00000
 APT Atomic charges with hydrogens summed into heavy atoms:
              1
     1  O    0.060490
     2  O    0.013900
     3  C   -0.084463
     4  C    0.253012
     5  C   -0.142816
     6  C   -0.035680
     7  C   -0.064443
     8  H    0.000000
     9  H    0.000000
    10  H    0.000000
    11  H    0.000000
    12  H    0.000000
    13  H    0.000000
    14  H    0.000000
    15  H    0.000000
    16  H    0.000000
    17  H    0.000000
    18  H    0.000000
 Sum of APT charges=   0.00000
 Electronic spatial extent (au):  <R**2>=           1135.3024
 Charge=              0.0000 electrons
 Dipole moment (field-independent basis, Debye):
    X=              3.1265    Y=             -0.0006    Z=             -0.4161  Tot=              3.1541
 Quadrupole moment (field-independent basis, Debye-Ang):
   XX=            -53.3324   YY=            -42.1098   ZZ=            -42.6338
   XY=              1.2297   XZ=             -1.2296   YZ=             -1.9603
 Traceless Quadrupole moment (field-independent basis, Debye-Ang):
   XX=             -7.3070   YY=              3.9155   ZZ=              3.3915
   XY=              1.2297   XZ=             -1.2296   YZ=             -1.9603
 Octapole moment (field-independent basis, Debye-Ang**2):
  XXX=             15.0677  YYY=              3.9222  ZZZ=             -4.7406  XYY=             -7.0426
  XXY=             -2.2708  XXZ=             -0.0533  XZZ=            -10.5420  YZZ=              5.7903
  YYZ=             -3.7925  XYZ=              5.2310
 Hexadecapole moment (field-independent basis, Debye-Ang**3):
 XXXX=          -1026.7237 YYYY=           -284.7506 ZZZZ=           -189.9810 XXXY=             -1.7474
 XXXZ=              1.0172 YYYX=             -8.3184 YYYZ=             -4.4503 ZZZX=              4.0433
 ZZZY=             -5.5497 XXYY=           -213.8578 XXZZ=           -189.4299 YYZZ=            -77.1339
 XXYZ=             -7.9188 YYXZ=              7.1469 ZZXY=             -3.7706
 N-N= 3.041052189778D+02 E-N=-2.117822073981D+03  KE= 5.157929389341D+02
  Exact polarizability:   0.000   0.000   0.000   0.000   0.000   0.000
 Approx polarizability:  61.924   1.152  52.262  -2.382  -0.602  49.427
                          Isotropic Fermi Contact Couplings
        Atom                 a.u.       MegaHertz       Gauss      10(-4) cm-1
     1  O(17)              0.11736     -71.14139     -25.38502     -23.73021
     2  O(17)              0.02151     -13.04169      -4.65360      -4.35024
     3  C(13)             -0.12353    -138.87091     -49.55259     -46.32235
     4  C(13)              0.13312     149.65365      53.40014      49.91908
     5  C(13)              0.16777     188.60765      67.29990      62.91274
     6  C(13)             -0.03053     -34.32112     -12.24663     -11.44829
     7  C(13)             -0.03187     -35.82408     -12.78292     -11.94963
     8  H(1)              -0.00114      -5.07920      -1.81239      -1.69424
     9  H(1)               0.01386      61.95294      22.10635      20.66528
    10  H(1)              -0.08574    -383.23976    -136.74947    -127.83502
    11  H(1)              -0.01528     -68.27998     -24.36399     -22.77575
    12  H(1)              -0.01311     -58.59931     -20.90969     -19.54663
    13  H(1)               0.01119      50.01412      17.84628      16.68291
    14  H(1)               0.00134       5.99624       2.13961       2.00013
    15  H(1)               0.01004      44.85957      16.00701      14.96354
    16  H(1)               0.01110      49.60204      17.69924      16.54546
    17  H(1)               0.01166      52.13189      18.60195      17.38933
    18  H(1)               0.00138       6.17110       2.20200       2.05846
 --------------------------------------------------------
       Center         ----  Spin Dipole Couplings  ----
                      3XX-RR        3YY-RR        3ZZ-RR
 --------------------------------------------------------
     1   Atom        0.878856     -0.830820     -0.048036
     2   Atom        0.162372     -0.163568      0.001197
     3   Atom        0.041890      0.064955     -0.106845
     4   Atom       -0.042306     -0.078652      0.120959
     5   Atom        0.153115     -0.222974      0.069859
     6   Atom        0.003369      0.000426     -0.003795
     7   Atom       -0.003298      0.000095      0.003203
     8   Atom       -0.000585      0.009571     -0.008986
     9   Atom        0.024152     -0.015676     -0.008476
    10   Atom        0.076933     -0.070926     -0.006007
    11   Atom       -0.000666     -0.036914      0.037581
    12   Atom       -0.016240      0.026860     -0.010620
    13   Atom       -0.001024      0.001855     -0.000831
    14   Atom       -0.001168      0.001558     -0.000390
    15   Atom       -0.000679     -0.002699      0.003379
    16   Atom        0.002984      0.000179     -0.003163
    17   Atom        0.001339      0.004478     -0.005817
    18   Atom       -0.002695      0.004503     -0.001808
 --------------------------------------------------------
                        XY            XZ            YZ
 --------------------------------------------------------
     1   Atom       -0.804252      1.573554     -0.569740
     2   Atom       -0.195735      0.132088     -0.187051
     3   Atom        0.195007     -0.275108      0.225820
     4   Atom       -0.232748      0.342131     -0.302481
     5   Atom       -0.197301      0.404348     -0.177583
     6   Atom        0.003925      0.003293     -0.004113
     7   Atom       -0.005852      0.002010      0.002788
     8   Atom        0.010507     -0.005720     -0.011231
     9   Atom        0.018074     -0.008079     -0.017720
    10   Atom       -0.112070      0.159488     -0.083778
    11   Atom       -0.010223     -0.021993     -0.009594
    12   Atom       -0.026119      0.005035      0.020989
    13   Atom       -0.003362     -0.004257      0.004371
    14   Atom       -0.002018     -0.001063      0.004231
    15   Atom       -0.001157     -0.003508      0.005608
    16   Atom        0.007081      0.001139      0.001144
    17   Atom        0.005770     -0.001165     -0.000948
    18   Atom        0.002187      0.003407      0.003144
 --------------------------------------------------------


 ---------------------------------------------------------------------------------
              Anisotropic Spin Dipole Couplings in Principal Axis System
 ---------------------------------------------------------------------------------

       Atom             a.u.   MegaHertz   Gauss  10(-4) cm-1        Axes

              Baa    -1.2311    89.085    31.788    29.716 -0.6371 -0.2351  0.7341
     1 O(17)  Bbb    -1.1289    81.686    29.148    27.248  0.0824  0.9261  0.3682
              Bcc     2.3600  -170.771   -60.935   -56.963  0.7664 -0.2951  0.5706
 
              Baa    -0.3089    22.349     7.975     7.455  0.2441  0.8728  0.4226
     2 O(17)  Bbb    -0.0595     4.304     1.536     1.436 -0.6222 -0.1933  0.7586
              Bcc     0.3683   -26.653    -9.511    -8.891  0.7438 -0.4481  0.4959
 
              Baa    -0.4803   -64.450   -22.997   -21.498  0.5425 -0.4797  0.6897
     3 C(13)  Bbb     0.2203    29.566    10.550     9.862 -0.0764  0.7894  0.6091
              Bcc     0.2600    34.885    12.448    11.636  0.8366  0.3831 -0.3916
 
              Baa    -0.3132   -42.031   -14.998   -14.020  0.7141 -0.1679 -0.6796
     4 C(13)  Bbb    -0.2911   -39.063   -13.938   -13.030  0.4468  0.8567  0.2578
              Bcc     0.6043    81.094    28.936    27.050  0.5389 -0.4878  0.6867
 
              Baa    -0.3083   -41.366   -14.760   -13.798  0.2430  0.9518  0.1871
     5 C(13)  Bbb    -0.2950   -39.585   -14.125   -13.204 -0.6642  0.0227  0.7472
              Bcc     0.6033    80.951    28.885    27.002  0.7069 -0.3059  0.6377
 
              Baa    -0.0084    -1.122    -0.400    -0.374 -0.3886  0.5273  0.7556
     6 C(13)  Bbb     0.0023     0.302     0.108     0.101 -0.3792  0.6558 -0.6527
              Bcc     0.0061     0.820     0.293     0.273  0.8397  0.5402  0.0549
 
              Baa    -0.0086    -1.156    -0.412    -0.385  0.7572  0.5951 -0.2693
     7 C(13)  Bbb     0.0033     0.443     0.158     0.148  0.5584 -0.3759  0.7395
              Bcc     0.0053     0.712     0.254     0.238 -0.3389  0.7103  0.6170
 
              Baa    -0.0143    -7.646    -2.728    -2.550  0.0785  0.3955  0.9151
     8 H(1)   Bbb    -0.0070    -3.752    -1.339    -1.252  0.8748 -0.4676  0.1271
              Bcc     0.0214    11.399     4.067     3.802  0.4782  0.7905 -0.3827
 
              Baa    -0.0318   -16.973    -6.057    -5.662 -0.1825  0.8125  0.5537
     9 H(1)   Bbb    -0.0040    -2.149    -0.767    -0.717  0.4865 -0.4148  0.7689
              Bcc     0.0358    19.123     6.823     6.379  0.8544  0.4097 -0.3196
 
              Baa    -0.1319   -70.368   -25.109   -23.472  0.6254  0.7124 -0.3183
    10 H(1)   Bbb    -0.1276   -68.086   -24.295   -22.711 -0.2759  0.5835  0.7638
              Bcc     0.2595   138.454    49.404    46.183  0.7299 -0.3899  0.5615
 
              Baa    -0.0427   -22.759    -8.121    -7.591  0.3297  0.9225  0.2007
    11 H(1)   Bbb    -0.0052    -2.771    -0.989    -0.924  0.8539 -0.3821  0.3534
              Bcc     0.0478    25.530     9.110     8.516 -0.4026 -0.0549  0.9137
 
              Baa    -0.0367   -19.586    -6.989    -6.533  0.7206  0.4657 -0.5137
    12 H(1)   Bbb    -0.0078    -4.186    -1.493    -1.396  0.5958 -0.0368  0.8023
              Bcc     0.0446    23.772     8.482     7.929 -0.3547  0.8842  0.3040
 
              Baa    -0.0053    -2.828    -1.009    -0.943  0.6231 -0.1732  0.7628
    13 H(1)   Bbb    -0.0028    -1.511    -0.539    -0.504  0.5996  0.7320 -0.3236
              Bcc     0.0081     4.339     1.548     1.447 -0.5023  0.6590  0.5599
 
              Baa    -0.0038    -2.051    -0.732    -0.684 -0.1978 -0.6492  0.7345
    14 H(1)   Bbb    -0.0018    -0.971    -0.346    -0.324  0.9291  0.1147  0.3516
              Bcc     0.0057     3.021     1.078     1.008 -0.3125  0.7519  0.5805
 
              Baa    -0.0062    -3.298    -1.177    -1.100 -0.1752  0.8198 -0.5452
    15 H(1)   Bbb    -0.0020    -1.073    -0.383    -0.358  0.9090  0.3474  0.2303
              Bcc     0.0082     4.371     1.560     1.458 -0.3782  0.4552  0.8061
 
              Baa    -0.0056    -3.014    -1.075    -1.005 -0.6271  0.7758 -0.0698
    16 H(1)   Bbb    -0.0034    -1.795    -0.640    -0.599 -0.1455 -0.0286  0.9889
              Bcc     0.0090     4.808     1.716     1.604  0.7652  0.6304  0.1308
 
              Baa    -0.0060    -3.202    -1.143    -1.068  0.1525  0.0055  0.9883
    17 H(1)   Bbb    -0.0030    -1.617    -0.577    -0.539  0.7803 -0.6144 -0.1170
              Bcc     0.0090     4.819     1.720     1.607  0.6066  0.7890 -0.0979
 
              Baa    -0.0057    -3.047    -1.087    -1.016  0.7307  0.0531 -0.6807
    18 H(1)   Bbb    -0.0013    -0.691    -0.247    -0.231  0.5923 -0.5452  0.5933
              Bcc     0.0070     3.738     1.334     1.247  0.3396  0.8367  0.4298
 

 ---------------------------------------------------------------------------------

 No NMR shielding tensors so no spin-rotation constants.
 Leave Link  601 at Mon Apr 30 12:22:29 2018, MaxMem=  671088640 cpu:      22.6
 (Enter /shared/apps/gaussian/G09_LINUX_LINDA/g09/l701.exe)
 Compute integral second derivatives.
 ... and contract with generalized density number  0.
 Leave Link  701 at Mon Apr 30 12:22:30 2018, MaxMem=  671088640 cpu:      12.6
 (Enter /shared/apps/gaussian/G09_LINUX_LINDA/g09/l702.exe)
 L702 exits ... SP integral derivatives will be done elsewhere.
 Leave Link  702 at Mon Apr 30 12:22:30 2018, MaxMem=  671088640 cpu:       0.3
 (Enter /shared/apps/gaussian/G09_LINUX_LINDA/g09/l703.exe)
 Compute integral second derivatives, UseDBF=F ICtDFT=           0.
 Integral derivatives from FoFDir, PRISM(SPDF).
 Calling FoFJK, ICntrl=    100147 FMM=F ISym2X=0 I1Cent= 0 IOpClX= 1 NMat=1 NMatS=1 NMatT=0.
 FoFCou: FMM=F IPFlag=           0 FMFlag=      100000 FMFlg1=         800
         NFxFlg=           0 DoJE=F BraDBF=F KetDBF=F FulRan=T
         Omega=  0.000000  0.000000  1.000000  0.000000  0.000000 ICntrl=  100147 IOpCl=  1
         NMat0=    1 NMatS0=    1 NMatT0=    0 NMatD0=    1 NMtDS0=    0 NMtDT0=    0
         I1Cent=           0 NGrid=           0.
 Symmetry not used in FoFCou.
 Leave Link  703 at Mon Apr 30 12:22:34 2018, MaxMem=  671088640 cpu:      32.6
 (Enter /shared/apps/gaussian/G09_LINUX_LINDA/g09/l716.exe)
 Dipole        = 1.23006125D+00-2.29127792D-04-1.63695500D-01
 Polarizability= 0.00000000D+00 0.00000000D+00 0.00000000D+00
                 0.00000000D+00 0.00000000D+00 0.00000000D+00
 ***** Axes restored to original set *****
 -------------------------------------------------------------------
 Center     Atomic                   Forces (Hartrees/Bohr)
 Number     Number              X              Y              Z
 -------------------------------------------------------------------
      1        8           0.000028197   -0.000015131    0.000029174
      2        8          -0.000969570   -0.000800338    0.000944596
      3        6           0.000895356    0.001271957   -0.001767153
      4        6           0.001054282   -0.000646755    0.001051547
      5        6           0.000011041   -0.000028330    0.000015940
      6        6           0.000069009    0.000097532    0.000018121
      7        6          -0.000167750   -0.000185715    0.000042744
      8        1          -0.000213628   -0.000145919   -0.000330799
      9        1          -0.000105452   -0.000156700    0.000073401
     10        1          -0.000059292    0.000050877   -0.000052257
     11        1           0.000254618    0.000706943   -0.001138936
     12        1          -0.000711968   -0.000227862    0.001165795
     13        1          -0.000017476    0.000007362   -0.000007293
     14        1          -0.000015930   -0.000006496    0.000056489
     15        1          -0.000041286    0.000028999   -0.000057507
     16        1          -0.000049914    0.000044646   -0.000004749
     17        1           0.000014480    0.000025586   -0.000029607
     18        1           0.000025282   -0.000020654   -0.000009505
 -------------------------------------------------------------------
 Cartesian Forces:  Max     0.001767153 RMS     0.000522742
 Leave Link  716 at Mon Apr 30 12:22:34 2018, MaxMem=  671088640 cpu:       1.4
 (Enter /shared/apps/gaussian/G09_LINUX_LINDA/g09/l103.exe)

 GradGradGradGradGradGradGradGradGradGradGradGradGradGradGradGradGradGrad
 Berny optimization.
 Red2BG is reusing G-inverse.
 Internal  Forces:  Max     0.004810000 RMS     0.000955231
 Search for a saddle point.
 Step number   1 out of a maximum of   81
 All quantities printed in internal units (Hartrees-Bohrs-Radians)
[...]
 57304,0.7869807,5.7630636,0.4847805,2.2124469,1.6742256,2.5113919,1.22
 24189,3.4105594,0.3420531,2.8703256,3.0396879,8.4736225,3.0566108,0.97
 16245,3.1447909,0.9146658,1.8313466,2.2582023,2.9949983,2.1932598,0.85
 47175,1.7504426,0.2056817,0.9193166,0.7344278,0.5577022,2.9847464,1.02
 64431,1.6814103,-2.3111882,2.1212142,-1.0201827,1.2182803,-0.6406425,-
 1.4234186,0.8959403,-1.5844402,2.863627,-0.398189,1.7651931,0.7890441,
 -0.6892137,-0.4151148,0.9045146,-1.8072923,1.4182938,1.4005522,1.40975
 43,-0.6256448,-0.1600294,1.981256,0.1773832,-0.0189893,-0.1444379,0.73
 63945,-4.2190341,-0.9475568,3.0252129,-3.1477037,-0.1449201,-0.4111225
 ,1.0931967,1.0853933,-3.0981449,5.2468846,12.3587427,0.9994727,0.29897
 19,0.5132799,0.0466536,0.0663445,2.1581269,2.4591414,1.0541445,0.02175
 61,0.6708268,0.0877994,1.2476129,-0.3831829,0.7070798,2.448953,0.09163
 41,0.0925076,1.7972067,-1.5496118,0.142785,1.3087859,-0.0848105,-0.449
 1382,-0.425946,2.3953988,-7.2461086,-0.6896307,2.4868848,-0.977255,1.8
 304942,-1.1714127,2.0162736,0.7405316,-2.7365366,2.1406013,0.4792296,0
 .045866,-0.4028124,-1.7833436,0.0774662,-0.0505917,0.6461562,0.2335947
 ,-1.6414675,0.4509157,-1.9680898,-1.2124682,-0.5778659,0.5290072,-0.71
 64726,1.3474055,-2.2135369,-6.8581433\HyperPolar=-515.7021915,74.89035
 85,26.8086047,8.0636797,11.4439895,21.2546052,20.4545834,2.3952285,14.
 1718288,-57.8634198\PG=C01 [X(C5H11O2)]\NImag=1\\0.05195689,-0.1749686
 3,0.21443521,-0.06369284,0.12831055,0.11873193,-0.06986440,0.07067599,
 0.04848739,0.17795886,0.08779617,-0.24194002,-0.14307221,-0.19613926,0
 .47222077,0.03091108,-0.07516819,-0.12009828,0.18199824,-0.06744631,0.
 46532960,0.03852899,0.05408370,-0.00277368,0.01195062,-0.00970253,-0.0
 0658737,0.45644363,-0.02290777,-0.02796295,0.00215077,-0.00587956,0.00
 597599,0.00390444,-0.21902111,0.36444581,0.00975888,0.01475941,0.00038
 533,0.00432721,-0.00341551,-0.00293492,0.10320496,0.11602178,0.7109674
 0,-0.01366311,-0.01976336,0.00120360,-0.00459580,0.00376574,0.00236693
 ,-0.20548014,0.07588660,-0.13960236,0.51671192,0.00789665,0.00989374,-
 0.00130086,0.00154359,-0.00112776,-0.00078711,0.08685049,-0.10579888,0
 .04690119,-0.22179185,0.38098444,-0.01664100,-0.02466019,0.00061304,-0
 .00549943,0.00577376,0.00352922,-0.10437329,0.01926836,-0.24641209,0.1
 3545352,0.04364292,0.63575407,-0.15001996,-0.17660440,0.01810823,-0.02
 276474,0.04513759,0.02416654,-0.10015951,0.05921807,0.05448793,-0.0623
 9765,0.04104663,-0.04571665,0.22398095,-0.06643117,-0.07042480,0.00932
 608,-0.00782598,0.01814487,0.00976538,0.12905412,-0.17600545,-0.044159
 68,0.01538216,-0.00749920,0.00289392,-0.21730285,0.50608641,0.04690792
 ,0.05163577,-0.00340594,0.00347774,-0.01472582,-0.00615457,-0.01175465
 ,-0.01686911,-0.13410289,-0.00517436,0.01030523,0.02781857,0.13876077,
 0.07859064,0.64690517,0.00058331,0.00106537,0.00017476,0.00023703,-0.0
 0034182,-0.00016697,0.00509379,-0.00818608,-0.02450415,-0.09842065,0.0
 1182674,-0.00967129,0.00037596,-0.00291910,0.00018682,0.64019231,0.000
 01196,0.00014042,-0.00012854,0.00023552,-0.00007870,-0.00011068,-0.001
 23222,0.01000508,0.01145701,0.01177254,-0.10437171,-0.04282361,-0.0026
 1763,-0.00131560,0.00147885,-0.03749277,0.62628312,-0.00058841,-0.0011
 9010,-0.00019011,-0.00014296,0.00059654,0.00023475,-0.00466517,-0.0053
 8050,-0.02048446,-0.00893235,-0.04364996,-0.23121222,0.00105307,0.0012
 0358,0.00047533,-0.01467266,-0.00288361,0.55811878,-0.00032010,-0.0007
 5883,-0.00004873,-0.00014610,0.00034721,0.00017799,-0.01756998,0.02147
 241,0.00579143,-0.16118985,0.07494900,0.02337044,0.00415295,0.00413773
 ,-0.00412404,0.00500569,0.00007319,0.00192302,0.58145598,-0.00019681,-
 0.00045388,-0.00002092,-0.00030275,-0.00002393,0.00012679,0.01525611,-
 0.00637159,-0.00171294,0.07523167,-0.15145016,-0.03348607,0.00375763,0
 .00604417,-0.00193143,0.00838208,-0.00462103,-0.00627381,0.02221371,0.
 58110518,0.00112291,0.00236238,0.00029348,0.00048460,-0.00114980,-0.00
 054687,-0.01724907,0.01582431,0.01231287,0.02739474,-0.03554039,-0.117
 36388,-0.00192629,-0.00078723,-0.00360699,0.02660414,-0.02624871,-0.01
 088963,0.02427842,0.00163688,0.66153334,-0.00239521,0.01528433,-0.0041
 6504,-0.13198342,0.14291492,-0.18929073,-0.00197344,0.00163484,-0.0007
 9526,0.00094063,-0.00005607,0.00092105,0.00622804,0.00098491,-0.000866
 06,-0.00004947,-0.00018758,-0.00010136,-0.00008317,0.00008985,-0.00000
 190,0.13670907,0.02352319,-0.04278971,0.01839771,0.12574578,-0.1716853
 5,0.16033278,0.00001123,0.00023991,0.00014153,-0.00018660,0.00034749,-
 0.00023372,-0.00051580,-0.00075205,0.00079149,0.00002438,-0.00001450,-
 0.00016697,-0.00009036,0.00020488,0.00008584,-0.15202497,0.21669159,0.
 02439700,-0.03416150,0.02153018,-0.21212301,0.21673270,-0.35288777,-0.
 00116426,0.00007849,-0.00019822,0.00040236,-0.00020565,0.00079918,0.00
 212197,0.00117309,-0.00090232,-0.00005151,0.00000464,0.00019726,0.0000
 1494,-0.00008053,-0.00010140,0.18997381,-0.18068075,0.33164021,0.00080
 003,0.00249599,0.00034782,0.00080392,-0.00123625,-0.00075215,-0.061598
 99,0.01608832,0.00351232,0.00549481,-0.00908231,-0.02267649,0.00514523
 ,0.01332674,0.02530983,0.00134986,0.00737135,-0.00287837,-0.00225638,-
 0.00401724,-0.00071518,-0.00024091,-0.00009726,0.00005663,0.05672969,-
 0.00025428,-0.00024137,0.00009447,-0.00009322,0.00003533,0.00009596,0.
 01521265,-0.09446475,-0.11099124,0.00144500,0.00752781,0.01261426,0.00
 042331,-0.00663688,-0.02163334,0.00671313,0.00538359,-0.00081762,-0.00
 289095,-0.00351026,0.00269409,-0.00009853,-0.00005405,0.00014685,-0.02
 533068,0.09274007,-0.00044138,-0.00163256,-0.00023187,-0.00111502,0.00
 072768,0.00072398,0.00342827,-0.10696287,-0.32778559,0.00165326,-0.010
 73127,-0.02170142,-0.00270301,-0.00195051,-0.00234602,-0.00452865,0.00
 014021,0.00126870,0.00274456,0.00025886,-0.00006701,0.00028743,0.00005
 396,-0.00022217,-0.00134596,0.11840683,0.34727444,0.12173045,0.1967346
 9,0.00244498,0.03389993,-0.06142919,-0.03717304,-0.10729253,0.04084099
 ,-0.01914368,0.03284060,-0.01723644,0.03992666,0.19487101,0.07874742,-
 0.06363929,-0.00184474,-0.00028926,0.00152086,0.00148660,0.00162654,-0
 .00322433,-0.00554790,0.00316060,-0.00295554,-0.00232737,0.00087794,0.
 00148380,-0.22264954,0.13022325,0.13801878,-0.01347176,0.00933239,-0.0
 7448025,-0.02703332,-0.05763614,0.04199873,-0.02056769,0.02598907,-0.0
 1417017,0.02944738,0.16782786,0.02581694,-0.04909031,-0.00114061,0.000
 01234,0.00088983,0.00017621,0.00003876,-0.00182795,-0.00801768,-0.0020
 3739,-0.00248000,-0.00234029,-0.00010946,0.00112066,-0.21058129,-0.076
 75509,-0.02500422,-0.05109281,-0.01936928,-0.01909810,0.00241781,0.011
 03384,0.02782869,-0.01148573,0.00571842,-0.00988653,0.00536486,-0.0108
 0675,-0.06087903,-0.02290583,-0.01332325,0.00053123,0.00040163,-0.0002
 3461,-0.00036156,-0.00033720,0.00075060,0.00388209,0.00142947,0.000443
 22,0.00065740,-0.00049837,-0.00052370,0.06898981,0.06689212,0.03249236
 ,0.01114100,0.01566164,-0.00043035,0.00273015,-0.00470021,-0.00284307,
 -0.01703993,0.01886092,-0.02819942,0.00286051,0.00273268,0.00623013,-0
 .05991073,0.05991238,-0.08318139,0.00020234,0.00041700,0.00029729,-0.0
 0119243,-0.00076062,-0.00072398,-0.00088171,-0.00003125,-0.00021222,-0
 .00016944,-0.00189049,0.00089281,-0.01977896,-0.02670865,0.02003250,0.
 08335315,0.00827008,0.01251340,-0.00059410,0.00203377,-0.00411758,-0.0
 0235016,-0.00192276,-0.00234698,0.01772933,0.00617673,-0.00380264,0.00
 065530,0.07568017,-0.12596890,0.11275138,-0.00001257,-0.00016185,-0.00
 077714,0.00075040,0.00063113,0.00061866,-0.00045009,0.00006764,-0.0002
 5683,-0.00105938,0.00004192,0.00011169,-0.01599435,-0.02043627,0.01590
 752,-0.06538516,0.12906345,-0.00100817,-0.00299235,0.00044928,-0.00041
 125,0.00120249,0.00066646,0.00559317,-0.00702915,0.01060721,0.00113358
 ,-0.00109975,-0.00060127,-0.09124109,0.11446919,-0.26258263,0.00041585
 ,-0.00019173,-0.00045311,0.00038321,0.00021003,0.00022368,0.00004303,-
 0.00011491,0.00000244,-0.00041081,0.00030088,0.00124812,0.00229967,0.0
 0642437,-0.00671817,0.09078547,-0.12621542,0.27444834,0.01027673,0.013
 46648,0.00000043,0.00121086,-0.00490754,-0.00219881,0.00095912,0.01952
 909,0.02398089,0.00310798,-0.00299188,0.00328953,-0.03964178,-0.009470
 52,-0.04313018,-0.00059955,0.00013902,-0.00054558,-0.00042127,-0.00045
 781,0.00008215,-0.00041866,0.00026024,-0.00029523,-0.00298628,0.005531
 24,0.00025920,-0.02241489,-0.02508646,-0.00751361,-0.00077428,-0.00779
 042,-0.00702262,0.05243503,0.00783314,0.01048698,0.00029673,0.00099728
 ,-0.00400458,-0.00172297,-0.01244648,-0.00449715,-0.01890150,0.0015968
 5,-0.00104989,0.00203137,0.00397279,-0.16526952,-0.15399461,0.00078453
 ,-0.00083737,-0.00036542,0.00023698,0.00020664,0.00015850,-0.00028238,
 0.00013484,-0.00036796,0.00367831,-0.00079288,-0.00031039,-0.01808721,
 -0.01916374,-0.00532877,0.00144990,0.01435786,0.01455007,0.01071675,0.
 16930318,-0.00650698,-0.00738277,0.00096396,-0.00045814,0.00286715,0.0
 0117080,0.00543658,-0.00530711,-0.00163298,-0.00182534,0.00175281,-0.0
 0261944,-0.03800670,-0.14709452,-0.24907337,-0.00042937,0.00012978,-0.
 00085439,0.00016653,0.00001587,0.00007737,0.00024416,-0.00009754,0.000
 15646,-0.00004339,-0.00165672,0.00146088,0.01138155,0.01076130,0.00023
 676,-0.00263262,-0.01788235,-0.01777513,0.03515381,0.16180684,0.268526
 11,0.00014417,0.00035789,-0.00007822,-0.00000081,-0.00019908,-0.000081
 63,0.00066907,-0.00114088,0.00019369,-0.00012949,0.00127031,-0.0037612
 8,0.00026506,0.00043973,-0.00000426,-0.27519477,-0.10695548,-0.0401423
 7,0.00008030,0.00035427,0.00011726,0.00006315,0.00010672,0.00002826,-0
 .00011604,0.00000843,-0.00025152,-0.00035469,-0.00037043,0.00022509,-0
 .00005103,-0.00004921,-0.00012181,-0.00016215,-0.00035979,-0.00017266,
 0.29743963,0.00007892,0.00024508,0.00007143,-0.00000239,-0.00013955,-0
 .00005889,0.00130272,-0.00112505,-0.00000632,-0.00752380,-0.00169581,-
 0.00199630,-0.00004534,-0.00045639,0.00002146,-0.10731555,-0.11174271,
 -0.02329956,-0.00053109,0.00006844,0.00022429,0.00006776,0.00003583,0.
 00000174,0.00003064,0.00035119,-0.00022803,-0.00029441,-0.00013145,0.0
 0001085,-0.00003062,0.00010931,0.00009475,0.00009204,0.00027607,0.0001
 5059,0.12037255,0.11444085,0.00059609,0.00108925,0.00017279,0.00013012
 ,-0.00052319,-0.00018766,0.00202810,-0.00285821,-0.00295462,-0.0364408
 2,-0.01499458,-0.00972160,0.00054444,-0.00063180,-0.00005472,-0.043223
 62,-0.02508531,-0.06353004,-0.00058064,0.00093136,0.00115854,-0.000002
 67,0.00007656,-0.00017547,0.00075120,0.00205925,-0.00141768,-0.0014473
 1,-0.00093476,0.00035672,-0.00012301,0.00008296,0.00009655,-0.00010037
 ,0.00013323,0.00015359,0.04734234,0.02541108,0.06967330,-0.00003150,-0
 .00006669,0.00005511,0.00003241,0.00000561,0.00000509,-0.00046026,0.00
 037600,0.00037607,0.00431764,-0.00457203,-0.00043544,-0.00083689,0.001
 17283,-0.00099287,-0.21676936,0.13687703,0.05839114,0.00077852,-0.0000
 7948,-0.00061646,-0.00004398,-0.00003033,0.00001629,0.00012924,-0.0001
 0160,0.00019604,0.00009714,0.00010753,-0.00008029,0.00002272,-0.000344
 60,-0.00030743,-0.00074508,0.00024990,-0.00249317,-0.02243917,0.021911
 35,0.00816830,0.23198698,0.00030961,0.00037943,0.00025873,0.00005096,-
 0.00012837,-0.00003595,0.00043452,-0.00021566,0.00041088,0.00546880,-0
 .00639558,-0.00107878,0.00087772,-0.00062707,0.00064989,0.13565231,-0.
 17661038,-0.05080917,-0.00083268,0.00058018,-0.00233795,-0.00001341,-0
 .00012117,-0.00015816,-0.00009188,-0.00003407,0.00000886,-0.00068803,-
 0.00031720,-0.00013047,-0.00012654,0.00019450,0.00030039,0.00120161,0.
 00044776,0.00203132,-0.01262910,0.01365074,0.00566339,-0.15324628,0.18
 682123,-0.00024044,-0.00050854,0.00001632,-0.00007605,0.00032252,0.000
 12089,0.00083201,0.00020652,0.00225402,0.02967641,-0.02370650,-0.00512
 049,-0.00118931,-0.00058492,-0.00069396,0.05489821,-0.04828849,-0.0812
 3706,-0.00253103,-0.00049446,-0.00719640,0.00002004,-0.00006090,-0.000
 01736,0.00016441,-0.00005703,0.00040581,0.00036882,0.00051981,-0.00018
 913,0.00014922,0.00036031,0.00039379,-0.00154891,0.00161687,-0.0011642
 4,-0.00413534,0.00529614,0.00142146,-0.05955224,0.05404255,0.08416558,
 0.00019275,0.00031591,0.00012182,0.00009550,-0.00018765,-0.00005164,-0
 .00022489,0.00006947,-0.00053164,0.00001175,0.00335634,-0.00396922,0.0
 0040551,0.00051552,-0.00039452,-0.05729701,-0.01036229,0.01107443,-0.0
 0004918,-0.00021305,0.00045646,-0.00012568,-0.00006742,-0.00013479,-0.
 00029424,-0.00024145,-0.00011570,-0.00032000,-0.00021654,0.00006411,-0
 .00015068,-0.00021462,-0.00019869,0.00022089,-0.00036450,0.00007709,-0
 .00113424,-0.02879743,0.02104791,0.00323958,0.02289266,-0.01804194,0.0
 5531976,-0.00036122,-0.00061181,-0.00009873,-0.00007684,0.00033023,0.0
 0010892,-0.00022703,-0.00067165,-0.00126484,0.00183827,0.01231586,-0.0
 0705411,-0.00024961,-0.00042298,0.00014510,-0.01071923,-0.24029322,0.1
 3109251,0.00003462,0.00035108,0.00004857,0.00000095,-0.00001651,0.0001
 1198,-0.00070439,-0.00050395,0.00014061,0.00070509,0.00049270,-0.00017
 647,0.00009164,0.00018380,0.00015565,-0.00018837,0.00038330,0.00002704
 ,-0.00103932,-0.01400611,0.00935999,-0.00237335,-0.01811152,0.01279688
 ,0.01352383,0.26007755,0.00064067,0.00121185,0.00020237,0.00019371,-0.
 00065446,-0.00020861,0.00264247,-0.00275435,-0.00334772,-0.00206915,0.
 03013105,-0.02426552,0.00179207,0.00037988,-0.00037913,0.01226663,0.13
 357235,-0.15293971,-0.00063409,0.00105849,0.00126899,-0.00015101,0.000
 07098,-0.00021298,-0.00213493,-0.00118084,-0.00030168,-0.00148531,-0.0
 0099692,0.00031719,-0.00014485,0.00005389,0.00004612,-0.00009919,0.000
 18612,0.00023569,0.00086487,-0.00538609,0.00494156,-0.00226487,-0.0087
 1460,0.00708248,-0.00966162,-0.14536541,0.16702129,0.00039548,0.000828
 37,0.00010355,0.00000857,-0.00045269,-0.00015286,-0.00114622,0.0015175
 6,0.00347787,-0.02437247,-0.00565824,-0.00635436,0.00104962,0.00126832
 ,-0.00121957,0.00049877,-0.00064673,-0.00093366,-0.29125713,-0.0982782
 0,-0.03433103,0.00009488,0.00011780,-0.00010950,-0.00048755,-0.0006614
 0,0.00034222,-0.00079690,-0.00077885,0.00021643,-0.00037198,0.00033106
 ,0.00012474,-0.00019626,0.00014530,0.00009063,0.00059918,0.00055281,0.
 00098940,0.00051155,0.00031194,-0.00006788,-0.00000609,-0.00000401,0.0
 0005970,0.31845136,-0.00022372,-0.00041152,-0.00004245,-0.00007900,0.0
 0028333,0.00009517,0.00146550,-0.00197795,-0.00215067,0.02735257,0.010
 80883,0.00538101,-0.00091815,-0.00134589,0.00123651,-0.00056212,0.0006
 5215,0.00076911,-0.09539121,-0.09462545,-0.01691661,0.00007192,-0.0001
 0373,0.00001015,0.00054601,0.00052932,-0.00009289,0.00031353,0.0003925
 2,-0.00009797,0.00038089,-0.00025632,-0.00008326,0.00008901,-0.0000376
 1,-0.00008198,-0.00020095,-0.00006455,-0.00036124,-0.00013827,0.000021
 17,0.00039220,-0.00017070,-0.00012984,-0.00009820,0.10456672,0.1020300
 5,-0.00011242,-0.00026634,-0.00004284,-0.00008175,0.00016191,0.0000839
 3,-0.00031734,-0.00030865,-0.00133810,0.00917565,0.00486331,0.00269860
 ,-0.00003822,0.00000299,0.00062517,0.00014211,0.00044500,0.00034852,-0
 .03374118,-0.01645819,-0.06520014,0.00001116,-0.00001826,-0.00001208,-
 0.00014498,-0.00016595,0.00048265,0.00029059,0.00017682,-0.00008736,0.
 00007491,-0.00010900,-0.00005085,-0.00008500,0.00003337,-0.00001013,0.
 00005604,-0.00037648,-0.00009285,-0.00020794,0.00006375,0.00016010,0.0
 0013148,0.00000966,0.00001272,0.03866852,0.01786665,0.06135540,0.00058
 327,0.00120182,0.00014900,0.00034170,-0.00061398,-0.00027534,-0.002012
 94,0.00237186,0.00211168,0.00030428,0.02496273,-0.01704955,-0.00056830
 ,-0.00075530,-0.00025385,0.00042214,-0.00087716,-0.00083685,-0.0554162
 7,-0.01498597,0.01075101,-0.00022824,0.00008009,-0.00003820,0.00052419
 ,0.00076188,-0.00022922,-0.00166843,-0.00088146,0.00038619,-0.00006761
 ,-0.00000292,-0.00001802,0.00002563,-0.00002629,0.00004849,-0.00001246
 ,-0.00014631,0.00018190,-0.00013084,-0.00028979,-0.00020353,0.00021339
 ,-0.00012136,0.00059298,-0.00152891,-0.03048884,0.02057069,0.05942628,
 -0.00070230,-0.00141405,-0.00018345,-0.00026348,0.00077278,0.00029319,
 0.00068573,-0.00208589,-0.00299663,0.00207826,-0.01864268,0.01412286,0
 .00002185,0.00049705,0.00053870,-0.00037109,0.00043585,0.00109737,-0.0
 1763157,-0.25263063,0.12547465,0.00010550,-0.00014072,0.00011789,-0.00
 034634,-0.00036314,0.00017861,0.00184733,0.00102325,-0.00041881,0.0001
 5750,-0.00003896,-0.00001635,0.00000412,-0.00004676,-0.00008444,-0.000
 01460,-0.00002218,0.00002767,0.00014191,0.00055482,-0.00020514,0.00013
 412,0.00025869,-0.00122485,-0.00231913,-0.01222386,0.00815280,0.015387
 60,0.27360254,0.00006082,0.00007431,-0.00001776,0.00004697,-0.00008251
 ,-0.00001522,0.00003213,-0.00020399,-0.00082239,-0.00268512,-0.0098128
 7,0.00777276,0.00052641,0.00034052,0.00017649,-0.00028348,-0.00010449,
 0.00047540,0.01172125,0.12404949,-0.14224004,-0.00006250,0.00006361,0.
 00004977,0.00028145,0.00028174,0.00033876,-0.00005001,-0.00008951,0.00
 005065,-0.00004192,-0.00003856,-0.00000516,-0.00007104,-0.00000187,0.0
 0007461,0.00008386,-0.00003988,-0.00001285,-0.00007847,0.00014176,0.00
 027771,0.00023761,-0.00014020,0.00002527,0.00023258,-0.00520344,0.0034
 6686,-0.01354917,-0.14027123,0.14806119,-0.00003878,-0.00001026,-0.000
 00784,0.00008572,-0.00005705,-0.00005228,0.00131361,-0.00073076,0.0015
 5357,0.00365906,0.00495364,0.02695666,-0.00017478,-0.00023693,0.000091
 95,-0.00378566,0.00376350,0.00017990,-0.06305818,-0.00761993,-0.032503
 46,-0.00006397,0.00001395,0.00007300,-0.00049978,0.00058902,-0.0005571
 4,0.00007025,0.00010208,0.00000980,0.00007891,-0.00001616,-0.00003883,
 0.00012397,-0.00009508,-0.00003048,0.00033429,0.00027815,0.00013864,0.
 00034132,0.00071757,0.00147755,-0.00009712,-0.00012964,-0.00040809,-0.
 00144589,-0.00661321,-0.03439233,-0.00020688,0.00108461,0.00359862,0.0
 6336391,0.00010292,0.00013706,0.00000653,0.00004721,-0.00003722,-0.000
 00905,-0.00216851,0.00085844,-0.00125411,-0.00471864,-0.00587368,-0.02
 449836,0.00029015,0.00013528,0.00009959,0.00461238,-0.00286549,-0.0000
 3506,-0.00626480,-0.07554352,-0.06431953,-0.00002427,-0.00000700,0.000
 01385,0.00076867,0.00010160,0.00076056,-0.00025395,-0.00019298,0.00004
 816,-0.00003100,-0.00003350,0.00003511,-0.00013661,0.00010288,0.000044
 74,0.00004894,0.00020629,0.00055437,0.00011047,-0.00008880,-0.00164782
 ,0.00002778,0.00037438,-0.00028889,-0.00084064,-0.00354066,-0.01407339
 ,0.00442341,0.01046391,0.03103712,0.00400649,0.07580300,-0.00015950,-0
 .00038818,-0.00000260,-0.00014028,0.00026724,0.00014042,-0.00214155,0.
 00170501,-0.00023128,-0.00184404,-0.00113241,-0.00916075,0.00013888,-0
 .00003078,0.00062507,0.00231195,-0.00176431,0.00090661,-0.02855052,-0.
 06749223,-0.33040652,0.00005375,-0.00007089,-0.00008894,0.00002120,0.0
 0030680,0.00139381,0.00041176,0.00025992,-0.00014751,0.00007048,-0.000
 04747,0.00000431,-0.00015549,0.00018040,0.00007343,-0.00016234,0.00010
 923,0.00017298,-0.00017886,-0.00030642,-0.00067952,-0.00011116,0.00010
 286,0.00050167,-0.00113680,-0.00062210,-0.00239959,-0.00233822,-0.0046
 0284,-0.01765605,0.03391074,0.07352618,0.35695446\\0.00000367,-0.00000
 453,0.00000271,-0.00000854,-0.00000126,0.00000212,-0.00000020,0.000002
 31,-0.00000339,0.00000092,0.00000029,0.00000218,0.00000695,-0.00000059
 ,0.00000178,-0.00000002,-0.00000049,0.00000032,0.00000010,0.00000025,-
 0.00000016,0.00000035,-0.00000006,-0.00000052,0.00000132,0.00000261,0.
 00000153,-0.00000504,0.00000146,-0.00000649,-0.00000057,-0.00000066,0.
 00000041,0.00000070,0.00000111,-0.00000084,-0.00000004,0.00000019,-0.0
 0000006,-0.00000009,-0.00000040,0.00000018,0.00000014,0.00000006,0.000
 00018,0.00000004,-0.00000018,0.00000002,0.00000022,-0.00000020,0.00000
 017,0.00000008,0.00000011,-0.00000013\\\@


 ERROR IS THE FORCE THAT WELDS MEN TOGETHER....
 TRUTH IS COMMUNICATED TO MEN ONLY BY DEEDS OF TRUTH.
           TOLSTOI,MY RELIGION
 Job cpu time:  0 days  0 hours 11 minutes  2.6 seconds.
 File lengths (MBytes):  RWF=    136 Int=      0 D2E=      0 Chk=      3 Scr=      1
 Normal termination of Gaussian 09 at Mon Apr 30 12:28:40 2018.
