 Entering Gaussian System, Link 0=g09
 Initial command:
 /shared/apps/gaussian/G09_LINUX_LINDA/g09/l1.exe /home/harms.n/Code/AutoTST/ipython_notebooks/Gau-48034.inp -scrdir=/home/harms.n/Code/AutoTST/ipython_notebooks/
 Entering Link 1 = /shared/apps/gaussian/G09_LINUX_LINDA/g09/l1.exe PID=     48035.
  
 Copyright (c) 1988,1990,1992,1993,1995,1998,2003,2009,2010,
            Gaussian, Inc.  All Rights Reserved.
  
 This is part of the Gaussian(R) 09 program.  It is based on
 the Gaussian(R) 03 system (copyright 2003, Gaussian, Inc.),
 the Gaussian(R) 98 system (copyright 1998, Gaussian, Inc.),
 the Gaussian(R) 94 system (copyright 1995, Gaussian, Inc.),
 the Gaussian 92(TM) system (copyright 1992, Gaussian, Inc.),
 the Gaussian 90(TM) system (copyright 1990, Gaussian, Inc.),
 the Gaussian 88(TM) system (copyright 1988, Gaussian, Inc.),
 the Gaussian 86(TM) system (copyright 1986, Carnegie Mellon
 University), and the Gaussian 82(TM) system (copyright 1983,
 Carnegie Mellon University). Gaussian is a federally registered
 trademark of Gaussian, Inc.
  
 This software contains proprietary and confidential information,
 including trade secrets, belonging to Gaussian, Inc.
  
 This software is provided under written license and may be
 used, copied, transmitted, or stored only in accord with that
 written license.
  
 The following legend is applicable only to US Government
 contracts under FAR:
  
                    RESTRICTED RIGHTS LEGEND
  
 Use, reproduction and disclosure by the US Government is
 subject to restrictions as set forth in subparagraphs (a)
 and (c) of the Commercial Computer Software - Restricted
 Rights clause in FAR 52.227-19.
  
 Gaussian, Inc.
 340 Quinnipiac St., Bldg. 40, Wallingford CT 06492
  
  
 ---------------------------------------------------------------
 Warning -- This program may not be used in any manner that
 competes with the business of Gaussian, Inc. or will provide
 assistance to any competitor of Gaussian, Inc.  The licensee
 of this program is prohibited from giving any competitor of
 Gaussian, Inc. access to this program.  By using this program,
 the user acknowledges that Gaussian, Inc. is engaged in the
 business of creating and licensing software in the field of
 computational chemistry and represents and warrants to the
 licensee that it is not a competitor of Gaussian, Inc. and that
 it will not use this program in any manner prohibited above.
 ---------------------------------------------------------------
  

 Cite this work as:
 Gaussian 09, Revision B.01,
 M. J. Frisch, G. W. Trucks, H. B. Schlegel, G. E. Scuseria, 
 M. A. Robb, J. R. Cheeseman, G. Scalmani, V. Barone, B. Mennucci, 
 G. A. Petersson, H. Nakatsuji, M. Caricato, X. Li, H. P. Hratchian, 
 A. F. Izmaylov, J. Bloino, G. Zheng, J. L. Sonnenberg, M. Hada, 
 M. Ehara, K. Toyota, R. Fukuda, J. Hasegawa, M. Ishida, T. Nakajima, 
 Y. Honda, O. Kitao, H. Nakai, T. Vreven, J. A. Montgomery, Jr., 
 J. E. Peralta, F. Ogliaro, M. Bearpark, J. J. Heyd, E. Brothers, 
 K. N. Kudin, V. N. Staroverov, T. Keith, R. Kobayashi, J. Normand, 
 K. Raghavachari, A. Rendell, J. C. Burant, S. S. Iyengar, J. Tomasi, 
 M. Cossi, N. Rega, J. M. Millam, M. Klene, J. E. Knox, J. B. Cross, 
 V. Bakken, C. Adamo, J. Jaramillo, R. Gomperts, R. E. Stratmann, 
 O. Yazyev, A. J. Austin, R. Cammi, C. Pomelli, J. W. Ochterski, 
 R. L. Martin, K. Morokuma, V. G. Zakrzewski, G. A. Voth, 
 P. Salvador, J. J. Dannenberg, S. Dapprich, A. D. Daniels, 
 O. Farkas, J. B. Foresman, J. V. Ortiz, J. Cioslowski, 
 and D. J. Fox, Gaussian, Inc., Wallingford CT, 2010.
 
 ******************************************
 Gaussian 09:  EM64L-G09RevB.01 12-Aug-2010
                 1-May-2018 
 ******************************************
 %nprocshared=20
 Will use up to   20 processors via shared memory.
 %mem=5GB
 -----------------------------------------------
 #p hf/6-31g* Opt=(ModRedun,Loose) Int(Grid=SG1)
 -----------------------------------------------
 1/7=-1,18=120,19=15,38=1/1,3;
 2/9=110,12=2,17=6,18=5,40=1/2;
 3/5=1,6=6,7=1,11=9,16=1,25=1,30=1,71=1,75=1/1,2,3;
 4//1;
 5/5=2,38=5/2;
 6/7=2,8=2,9=2,10=2,28=1/1;
 7//1,2,3,16;
 1/7=-1,18=20,19=15/3(2);
 2/9=110/2;
 99//99;
 2/9=110/2;
 3/5=1,6=6,7=1,11=9,16=1,25=1,30=1,71=1,75=1/1,2,3;
 4/5=5,16=3/1;
 5/5=2,38=5/2;
 7//1,2,3,16;
 1/7=-1,18=20,19=15/3(-5);
 2/9=110/2;
 6/7=2,8=2,9=2,10=2,19=2,28=1/1;
 99/9=1/99;
 Leave Link    1 at Tue May  1 13:23:55 2018, MaxMem=  671088640 cpu:       3.6
 (Enter /shared/apps/gaussian/G09_LINUX_LINDA/g09/l101.exe)
 ------------------------------
 Gaussian input prepared by ASE
 ------------------------------
 Symbolic Z-matrix:
 Charge =  0 Multiplicity = 2
 O                    -3.13682   0.4489   -0.8475 
 O                    -4.4484    0.55601  -0.85221 
 C                     0.3373    0.5562   -0.985 
 C                     0.988    -0.1118   -0.0102 
 C                    -0.8219    1.4737   -0.7225 
 C                     1.05999   0.42321   1.40044 
 C                     1.65563  -1.41908  -0.34969 
 H                    -4.68371   0.67975  -1.80614 
 H                     0.6556    0.4338   -2.0174 
 H                    -1.94883   0.80839  -0.79935 
 H                    -0.83692   2.28253  -1.48279 
 H                    -0.72549   1.93544   0.28237 
 H                     1.55789   1.41551   1.40471 
 H                     0.03746   0.52148   1.82129 
 H                     1.639    -0.25281   2.06322 
 H                     2.42283  -1.25551  -1.13594 
 H                     2.15421  -1.86734   0.53473 
 H                     0.89907  -2.14032  -0.72507 
 
 NAtoms=     18 NQM=     18 NQMF=      0 NMic=      0 NMicF=      0 NTot=     18.
 The following ModRedundant input section has been read:
 B       1       5 F                                                           
 B       1      10 F                                                           
 B       5      10 F                                                           
                    Isotopes and Nuclear Properties:
 (Nuclear quadrupole moments (NQMom) in fm**2, nuclear magnetic moments (NMagM)
  in nuclear magnetons)

  Atom         1           2           3           4           5           6           7           8           9          10
 IAtWgt=          16          16          12          12          12          12          12           1           1           1
 AtmWgt=  15.9949146  15.9949146  12.0000000  12.0000000  12.0000000  12.0000000  12.0000000   1.0078250   1.0078250   1.0078250
 NucSpn=           0           0           0           0           0           0           0           1           1           1
 AtZEff=   0.0000000   0.0000000   0.0000000   0.0000000   0.0000000   0.0000000   0.0000000   0.0000000   0.0000000   0.0000000
 NQMom=    0.0000000   0.0000000   0.0000000   0.0000000   0.0000000   0.0000000   0.0000000   0.0000000   0.0000000   0.0000000
 NMagM=    0.0000000   0.0000000   0.0000000   0.0000000   0.0000000   0.0000000   0.0000000   2.7928460   2.7928460   2.7928460

  Atom        11          12          13          14          15          16          17          18
 IAtWgt=           1           1           1           1           1           1           1           1
 AtmWgt=   1.0078250   1.0078250   1.0078250   1.0078250   1.0078250   1.0078250   1.0078250   1.0078250
 NucSpn=           1           1           1           1           1           1           1           1
 AtZEff=   0.0000000   0.0000000   0.0000000   0.0000000   0.0000000   0.0000000   0.0000000   0.0000000
 NQMom=    0.0000000   0.0000000   0.0000000   0.0000000   0.0000000   0.0000000   0.0000000   0.0000000
 NMagM=    2.7928460   2.7928460   2.7928460   2.7928460   2.7928460   2.7928460   2.7928460   2.7928460
 Leave Link  101 at Tue May  1 13:23:55 2018, MaxMem=  671088640 cpu:       1.2
 (Enter /shared/apps/gaussian/G09_LINUX_LINDA/g09/l103.exe)

 GradGradGradGradGradGradGradGradGradGradGradGradGradGradGradGradGradGrad
 Berny optimization.
 Initialization pass.
                           ----------------------------
                           !    Initial Parameters    !
                           ! (Angstroms and Degrees)  !
 --------------------------                            --------------------------
 ! Name  Definition              Value          Derivative Info.                !
 --------------------------------------------------------------------------------
 ! R1    R(1,2)                  1.316          estimate D2E/DX2                !
 ! R2    R(1,5)                  2.5347         Frozen                          !
 ! R3    R(1,10)                 1.2421         Frozen                          !
 ! R4    R(2,8)                  0.9903         estimate D2E/DX2                !
 ! R5    R(3,4)                  1.349          estimate D2E/DX2                !
 ! R6    R(3,5)                  1.5015         estimate D2E/DX2                !
 ! R7    R(3,9)                  1.0873         estimate D2E/DX2                !
 ! R8    R(4,6)                  1.5104         estimate D2E/DX2                !
 ! R9    R(4,7)                  1.5066         estimate D2E/DX2                !
 ! R10   R(5,10)                 1.3109         Frozen                          !
 ! R11   R(5,11)                 1.1102         estimate D2E/DX2                !
 ! R12   R(5,12)                 1.1101         estimate D2E/DX2                !
 ! R13   R(6,13)                 1.1102         estimate D2E/DX2                !
 ! R14   R(6,14)                 1.1101         estimate D2E/DX2                !
 ! R15   R(6,15)                 1.1098         estimate D2E/DX2                !
 ! R16   R(7,16)                 1.1106         estimate D2E/DX2                !
 ! R17   R(7,17)                 1.1098         estimate D2E/DX2                !
 ! R18   R(7,18)                 1.1106         estimate D2E/DX2                !
 ! A1    A(2,1,10)             158.4068         estimate D2E/DX2                !
 ! A2    A(1,2,8)              104.5038         estimate D2E/DX2                !
 ! A3    A(4,3,5)              123.2739         estimate D2E/DX2                !
 ! A4    A(4,3,9)              119.2866         estimate D2E/DX2                !
 ! A5    A(5,3,9)              117.4395         estimate D2E/DX2                !
 ! A6    A(3,4,6)              121.4971         estimate D2E/DX2                !
 ! A7    A(3,4,7)              118.7226         estimate D2E/DX2                !
 ! A8    A(6,4,7)              119.7802         estimate D2E/DX2                !
 ! A9    A(3,5,10)             110.0785         estimate D2E/DX2                !
 ! A10   A(3,5,11)             109.6279         estimate D2E/DX2                !
 ! A11   A(3,5,12)             110.2051         estimate D2E/DX2                !
 ! A12   A(10,5,11)            108.5408         estimate D2E/DX2                !
 ! A13   A(10,5,12)            109.8056         estimate D2E/DX2                !
 ! A14   A(11,5,12)            108.5461         estimate D2E/DX2                !
 ! A15   A(4,6,13)             109.9723         estimate D2E/DX2                !
 ! A16   A(4,6,14)             109.9698         estimate D2E/DX2                !
 ! A17   A(4,6,15)             111.5229         estimate D2E/DX2                !
 ! A18   A(13,6,14)            109.4217         estimate D2E/DX2                !
 ! A19   A(13,6,15)            107.9493         estimate D2E/DX2                !
 ! A20   A(14,6,15)            107.9444         estimate D2E/DX2                !
 ! A21   A(4,7,16)             109.7442         estimate D2E/DX2                !
 ! A22   A(4,7,17)             111.7131         estimate D2E/DX2                !
 ! A23   A(4,7,18)             109.7411         estimate D2E/DX2                !
 ! A24   A(16,7,17)            108.2587         estimate D2E/DX2                !
 ! A25   A(16,7,18)            109.0819         estimate D2E/DX2                !
 ! A26   A(17,7,18)            108.245          estimate D2E/DX2                !
 ! A27   A(1,10,5)             166.2488         estimate D2E/DX2                !
 ! D1    D(10,1,2,8)            89.288          estimate D2E/DX2                !
 ! D2    D(2,1,10,5)             0.0            estimate D2E/DX2                !
 ! D3    D(5,3,4,6)            -27.976          estimate D2E/DX2                !
 ! D4    D(5,3,4,7)            152.1137         estimate D2E/DX2                !
 ! D5    D(9,3,4,6)            152.0881         estimate D2E/DX2                !
 ! D6    D(9,3,4,7)            -27.8222         estimate D2E/DX2                !
 ! D7    D(4,3,5,10)           -91.2661         estimate D2E/DX2                !
 ! D8    D(4,3,5,11)           149.4065         estimate D2E/DX2                !
 ! D9    D(4,3,5,12)            29.9946         estimate D2E/DX2                !
 ! D10   D(9,3,5,10)            88.6709         estimate D2E/DX2                !
 ! D11   D(9,3,5,11)           -30.6565         estimate D2E/DX2                !
 ! D12   D(9,3,5,12)          -150.0684         estimate D2E/DX2                !
 ! D13   D(3,4,6,13)           -59.8981         estimate D2E/DX2                !
 ! D14   D(3,4,6,14)            60.6651         estimate D2E/DX2                !
 ! D15   D(3,4,6,15)          -179.6204         estimate D2E/DX2                !
 ! D16   D(7,4,6,13)           120.0113         estimate D2E/DX2                !
 ! D17   D(7,4,6,14)          -119.4256         estimate D2E/DX2                !
 ! D18   D(7,4,6,15)             0.289          estimate D2E/DX2                !
 ! D19   D(3,4,7,16)            59.9255         estimate D2E/DX2                !
 ! D20   D(3,4,7,17)          -179.9931         estimate D2E/DX2                !
 ! D21   D(3,4,7,18)           -59.9311         estimate D2E/DX2                !
 ! D22   D(6,4,7,16)          -119.9863         estimate D2E/DX2                !
 ! D23   D(6,4,7,17)             0.095          estimate D2E/DX2                !
 ! D24   D(6,4,7,18)           120.157          estimate D2E/DX2                !
 ! D25   D(3,5,10,1)          -172.3928         estimate D2E/DX2                !
 ! D26   D(11,5,10,1)          -52.4048         estimate D2E/DX2                !
 ! D27   D(12,5,10,1)           66.1081         estimate D2E/DX2                !
 --------------------------------------------------------------------------------
 Trust Radius=3.00D-01 FncErr=1.00D-07 GrdErr=1.00D-07
 Number of steps in this run=     82 maximum allowed number of steps=    108.
 GradGradGradGradGradGradGradGradGradGradGradGradGradGradGradGradGradGrad

 Leave Link  103 at Tue May  1 13:23:55 2018, MaxMem=  671088640 cpu:       0.2
 (Enter /shared/apps/gaussian/G09_LINUX_LINDA/g09/l202.exe)
                          Input orientation:                          
 ---------------------------------------------------------------------
 Center     Atomic      Atomic             Coordinates (Angstroms)
 Number     Number       Type             X           Y           Z
 ---------------------------------------------------------------------
      1          8           0       -3.136821    0.448897   -0.847502
      2          8           0       -4.448400    0.556010   -0.852211
      3          6           0        0.337300    0.556200   -0.985000
      4          6           0        0.988000   -0.111800   -0.010200
      5          6           0       -0.821900    1.473700   -0.722500
      6          6           0        1.059987    0.423214    1.400438
      7          6           0        1.655631   -1.419083   -0.349690
      8          1           0       -4.683708    0.679745   -1.806141
      9          1           0        0.655600    0.433800   -2.017400
     10          1           0       -1.948834    0.808387   -0.799352
     11          1           0       -0.836917    2.282527   -1.482792
     12          1           0       -0.725492    1.935436    0.282366
     13          1           0        1.557894    1.415506    1.404711
     14          1           0        0.037457    0.521483    1.821292
     15          1           0        1.639000   -0.252814    2.063221
     16          1           0        2.422825   -1.255511   -1.135945
     17          1           0        2.154212   -1.867338    0.534730
     18          1           0        0.899068   -2.140323   -0.725071
 ---------------------------------------------------------------------
                    Distance matrix (angstroms):
                    1          2          3          4          5
     1  O    0.000000
     2  O    1.315954   0.000000
     3  C    3.478496   4.787542   0.000000
     4  C    4.246128   5.541606   1.349025   0.000000
     5  C    2.534700   3.743057   1.501485   2.509366   0.000000
     6  C    4.760997   5.952679   2.496052   1.510404   3.025208
     7  C    5.167665   6.435271   2.458324   1.506643   3.826923
     8  H    1.834432   0.990284   5.089210   6.001685   4.088790
     9  H    3.968796   5.236737   1.087266   2.106424   2.222873
    10  H    1.242121   2.512830   2.307482   3.177184   1.310926
    11  H    3.009211   4.052320   2.146343   3.351366   1.110167
    12  H    3.049739   4.129180   2.153610   2.685670   1.110068
    13  H    5.295955   6.473638   2.817619   2.158568   3.192465
    14  H    4.147743   5.222233   2.822479   2.158459   2.848875
    15  H    5.636770   6.797821   3.411829   2.177788   4.098429
    16  H    5.822188   7.111670   2.766676   2.152696   4.260020
    17  H    5.938901   7.168731   3.388847   2.176905   4.647624
    18  H    4.796608   5.990140   2.766655   2.152639   4.002861
                    6          7          8          9         10
     6  C    0.000000
     7  C    2.609941   0.000000
     8  H    6.583160   6.834731   0.000000
     9  H    3.441694   2.685981   5.349143   0.000000
    10  H    3.747057   4.260984   2.917141   2.899488   0.000000
    11  H    3.920243   4.604197   4.179864   2.435406   1.968893
    12  H    2.593229   4.161975   4.648236   3.074288   1.984167
    13  H    1.110213   3.335021   7.057515   3.672700   4.186123
    14  H    1.110110   3.331283   5.955898   3.889132   3.300824
    15  H    1.109753   2.680036   7.471163   4.253232   4.710947
    16  H    3.332969   1.110649   7.395756   2.598812   4.846068
    17  H    2.682053   1.109826   7.663189   3.748925   5.076836
    18  H    3.333977   1.110624   6.347353   2.890588   4.100115
                   11         12         13         14         15
    11  H    0.000000
    12  H    1.802407   0.000000
    13  H    3.850262   2.596890   0.000000
    14  H    3.844838   2.224781   1.812332   0.000000
    15  H    5.013216   3.681129   1.795413   1.795273   0.000000
    16  H    4.823270   4.701665   3.786472   4.194394   3.443028
    17  H    5.498966   4.776764   3.448120   3.441273   2.282196
    18  H    4.811380   4.501770   4.196896   3.783061   3.447428
                   16         17         18
    16  H    0.000000
    17  H    1.799344   0.000000
    18  H    1.809294   1.799168   0.000000
 Stoichiometry    C5H11O2(2)
 Framework group  C1[X(C5H11O2)]
 Deg. of freedom    48
 Full point group                 C1      NOp   1
 Largest Abelian subgroup         C1      NOp   1
 Largest concise Abelian subgroup C1      NOp   1
                         Standard orientation:                         
 ---------------------------------------------------------------------
 Center     Atomic      Atomic             Coordinates (Angstroms)
 Number     Number       Type             X           Y           Z
 ---------------------------------------------------------------------
      1          8           0        2.466827   -0.245066   -0.226095
      2          8           0        3.743058   -0.201367   -0.543994
      3          6           0       -0.803635   -0.139599    0.954112
      4          6           0       -1.768650   -0.064816    0.014418
      5          6           0        0.430309    0.715718    0.937602
      6          6           0       -2.035344    1.214599   -0.742743
      7          6           0       -2.593472   -1.291810   -0.275624
      8          1           0        4.198301   -0.685080    0.190471
      9          1           0       -0.909652   -0.850437    1.769965
     10          1           0        1.392096    0.105692    0.288478
     11          1           0        0.769306    0.901389    1.978313
     12          1           0        0.213203    1.692703    0.457378
     13          1           0       -2.315135    2.022847   -0.034912
     14          1           0       -1.128977    1.516490   -1.308167
     15          1           0       -2.866138    1.092665   -1.468322
     16          1           0       -3.124912   -1.612952    0.645235
     17          1           0       -3.349906   -1.100893   -1.064974
     18          1           0       -1.932519   -2.115507   -0.619353
 ---------------------------------------------------------------------
 Rotational constants (GHZ):      4.4206836      0.8319999      0.8065517
 Leave Link  202 at Tue May  1 13:23:56 2018, MaxMem=  671088640 cpu:       0.9
 (Enter /shared/apps/gaussian/G09_LINUX_LINDA/g09/l301.exe)
 Standard basis: 6-31G(d) (6D, 7F)
 Ernie: Thresh=  0.10000D-02 Tol=  0.10000D-05 Strict=F.
 There are   127 symmetry adapted basis functions of A   symmetry.
 Integral buffers will be    131072 words long.
 Raffenetti 2 integral format.
 Two-electron integral symmetry is turned on.
   127 basis functions,   240 primitive gaussians,   127 cartesian basis functions
    29 alpha electrons       28 beta electrons
       nuclear repulsion energy       289.0846973614 Hartrees.
 IExCor=    0 DFT=F Ex=HF Corr=None ExCW=0 ScaHFX=  1.000000
 ScaDFX=  1.000000  1.000000  1.000000  1.000000 ScalE2=  1.000000  1.000000
 IRadAn=      1 IRanWt=     -1 IRanGd=            0 ICorTp=0
 NAtoms=   18 NActive=   18 NUniq=   18 SFac= 1.00D+00 NAtFMM=   50 NAOKFM=F Big=F
 Leave Link  301 at Tue May  1 13:23:56 2018, MaxMem=  671088640 cpu:       1.0
 (Enter /shared/apps/gaussian/G09_LINUX_LINDA/g09/l302.exe)
 NPDir=0 NMtPBC=     1 NCelOv=     1 NCel=       1 NClECP=     1 NCelD=      1
         NCelK=      1 NCelE2=     1 NClLst=     1 CellRange=     0.0.
 One-electron integrals computed using PRISM.
 NBasis=   127 RedAO= T  NBF=   127
 NBsUse=   127 1.00D-06 NBFU=   127
 Leave Link  302 at Tue May  1 13:23:58 2018, MaxMem=  671088640 cpu:       6.7
 (Enter /shared/apps/gaussian/G09_LINUX_LINDA/g09/l303.exe)
 DipDrv:  MaxL=1.
 Leave Link  303 at Tue May  1 13:23:58 2018, MaxMem=  671088640 cpu:       1.7
 (Enter /shared/apps/gaussian/G09_LINUX_LINDA/g09/l401.exe)
 Harris functional with IExCor=  205 diagonalized for initial guess.
 ExpMin= 1.61D-01 ExpMax= 5.48D+03 ExpMxC= 8.25D+02 IAcc=1 IRadAn=         1 AccDes= 0.00D+00
 HarFok:  IExCor=  205 AccDes= 0.00D+00 IRadAn=         1 IDoV= 1
 ScaDFX=  1.000000  1.000000  1.000000  1.000000
 FoFCou: FMM=F IPFlag=           0 FMFlag=      100000 FMFlg1=           0
         NFxFlg=           0 DoJE=T BraDBF=F KetDBF=T FulRan=T
         Omega=  0.000000  0.000000  1.000000  0.000000  0.000000 ICntrl=     500 IOpCl=  0
         NMat0=    1 NMatS0=    1 NMatT0=    0 NMatD0=    1 NMtDS0=    0 NMtDT0=    0
         I1Cent=           4 NGrid=           0.
 Petite list used in FoFCou.
 Harris En= -345.754366381319    
 Initial guess orbital symmetries:
 Alpha Orbitals:
       Occupied  (A) (A) (A) (A) (A) (A) (A) (A) (A) (A) (A) (A)
                 (A) (A) (A) (A) (A) (A) (A) (A) (A) (A) (A) (A)
                 (A) (A) (A) (A) (A)
       Virtual   (A) (A) (A) (A) (A) (A) (A) (A) (A) (A) (A) (A)
                 (A) (A) (A) (A) (A) (A) (A) (A) (A) (A) (A) (A)
                 (A) (A) (A) (A) (A) (A) (A) (A) (A) (A) (A) (A)
                 (A) (A) (A) (A) (A) (A) (A) (A) (A) (A) (A) (A)
                 (A) (A) (A) (A) (A) (A) (A) (A) (A) (A) (A) (A)
                 (A) (A) (A) (A) (A) (A) (A) (A) (A) (A) (A) (A)
                 (A) (A) (A) (A) (A) (A) (A) (A) (A) (A) (A) (A)
                 (A) (A) (A) (A) (A) (A) (A) (A) (A) (A) (A) (A)
                 (A) (A)
 Beta  Orbitals:
       Occupied  (A) (A) (A) (A) (A) (A) (A) (A) (A) (A) (A) (A)
                 (A) (A) (A) (A) (A) (A) (A) (A) (A) (A) (A) (A)
                 (A) (A) (A) (A)
       Virtual   (A) (A) (A) (A) (A) (A) (A) (A) (A) (A) (A) (A)
                 (A) (A) (A) (A) (A) (A) (A) (A) (A) (A) (A) (A)
                 (A) (A) (A) (A) (A) (A) (A) (A) (A) (A) (A) (A)
                 (A) (A) (A) (A) (A) (A) (A) (A) (A) (A) (A) (A)
                 (A) (A) (A) (A) (A) (A) (A) (A) (A) (A) (A) (A)
                 (A) (A) (A) (A) (A) (A) (A) (A) (A) (A) (A) (A)
                 (A) (A) (A) (A) (A) (A) (A) (A) (A) (A) (A) (A)
                 (A) (A) (A) (A) (A) (A) (A) (A) (A) (A) (A) (A)
                 (A) (A) (A)
 The electronic state of the initial guess is 2-A.
 Initial guess <Sx>= 0.0000 <Sy>= 0.0000 <Sz>= 0.5000 <S**2>= 0.7500 S= 0.5000
 Leave Link  401 at Tue May  1 13:24:01 2018, MaxMem=  671088640 cpu:      27.1
 (Enter /shared/apps/gaussian/G09_LINUX_LINDA/g09/l502.exe)
 UHF open shell SCF:
 Requested convergence on RMS density matrix=1.00D-08 within 128 cycles.
 Requested convergence on MAX density matrix=1.00D-06.
 Requested convergence on             energy=1.00D-06.
 No special actions if energy rises.
 Using DIIS extrapolation, IDIIS=  1040.
 Integral symmetry usage will be decided dynamically.
 Keep R1 and R2 ints in memory in canonical form, NReq=67191093.
 IEnd=       70048 IEndB=       70048 NGot=   671088640 MDV=   604978949
 LenX=   604978949 LenY=   604962379
 Symmetry not used in FoFDir.
 MinBra= 0 MaxBra= 2 Meth= 1.
 IRaf=       0 NMat=   1 IRICut=       1 DoRegI=T DoRafI=F ISym2E= 0 JSym2E=0.

 Cycle   1  Pass 1  IDiag  1:
 E= -344.786243827248    
 DIIS: error= 6.02D-02 at cycle   1 NSaved=   1.
 NSaved= 1 IEnMin= 1 EnMin= -344.786243827248     IErMin= 1 ErrMin= 6.02D-02
 ErrMax= 6.02D-02 EMaxC= 1.00D-01 BMatC= 2.08D+00 BMatP= 2.08D+00
 IDIUse=3 WtCom= 3.98D-01 WtEn= 6.02D-01
 Coeff-Com:  0.100D+01
 Coeff-En:   0.100D+01
 Coeff:      0.100D+01
 Gap=     0.812 Goal=   None    Shift=    0.000
 Gap=     0.481 Goal=   None    Shift=    0.000
 GapD=    0.481 DampG=2.000 DampE=0.500 DampFc=1.0000 IDamp=-1.
 RMSDP=6.35D-03 MaxDP=1.18D-01              OVMax= 1.66D-01

 Cycle   2  Pass 1  IDiag  1:
 E= -345.108129063423     Delta-E=       -0.321885236175 Rises=F Damp=F
 DIIS: error= 2.47D-02 at cycle   2 NSaved=   2.
 NSaved= 2 IEnMin= 2 EnMin= -345.108129063423     IErMin= 2 ErrMin= 2.47D-02
 ErrMax= 2.47D-02 EMaxC= 1.00D-01 BMatC= 2.91D-01 BMatP= 2.08D+00
 IDIUse=3 WtCom= 7.53D-01 WtEn= 2.47D-01
 Coeff-Com:  0.205D+00 0.795D+00
 Coeff-En:   0.000D+00 0.100D+01
 Coeff:      0.154D+00 0.846D+00
 Gap=     0.517 Goal=   None    Shift=    0.000
 Gap=     0.337 Goal=   None    Shift=    0.000
 RMSDP=3.02D-03 MaxDP=4.13D-02 DE=-3.22D-01 OVMax= 1.44D-01

 Cycle   3  Pass 1  IDiag  1:
 E= -345.177178615607     Delta-E=       -0.069049552185 Rises=F Damp=F
 DIIS: error= 7.48D-03 at cycle   3 NSaved=   3.
 NSaved= 3 IEnMin= 3 EnMin= -345.177178615607     IErMin= 3 ErrMin= 7.48D-03
 ErrMax= 7.48D-03 EMaxC= 1.00D-01 BMatC= 3.11D-02 BMatP= 2.91D-01
 IDIUse=3 WtCom= 9.25D-01 WtEn= 7.48D-02
 Coeff-Com: -0.198D-01 0.193D+00 0.826D+00
 Coeff-En:   0.000D+00 0.000D+00 0.100D+01
 Coeff:     -0.183D-01 0.179D+00 0.839D+00
 Gap=     0.456 Goal=   None    Shift=    0.000
 Gap=     0.319 Goal=   None    Shift=    0.000
 RMSDP=7.43D-04 MaxDP=2.26D-02 DE=-6.90D-02 OVMax= 4.83D-02

 Cycle   4  Pass 1  IDiag  1:
 E= -345.187381570475     Delta-E=       -0.010202954868 Rises=F Damp=F
 DIIS: error= 3.86D-03 at cycle   4 NSaved=   4.
 NSaved= 4 IEnMin= 4 EnMin= -345.187381570475     IErMin= 4 ErrMin= 3.86D-03
 ErrMax= 3.86D-03 EMaxC= 1.00D-01 BMatC= 5.10D-03 BMatP= 3.11D-02
 IDIUse=3 WtCom= 9.61D-01 WtEn= 3.86D-02
 Coeff-Com: -0.137D-01 0.144D-01 0.242D+00 0.757D+00
 Coeff-En:   0.000D+00 0.000D+00 0.000D+00 0.100D+01
 Coeff:     -0.132D-01 0.139D-01 0.233D+00 0.766D+00
 Gap=     0.452 Goal=   None    Shift=    0.000
 Gap=     0.335 Goal=   None    Shift=    0.000
 RMSDP=3.09D-04 MaxDP=7.93D-03 DE=-1.02D-02 OVMax= 2.32D-02

 Cycle   5  Pass 1  IDiag  1:
 E= -345.189779558521     Delta-E=       -0.002397988046 Rises=F Damp=F
 DIIS: error= 3.91D-03 at cycle   5 NSaved=   5.
 NSaved= 5 IEnMin= 5 EnMin= -345.189779558521     IErMin= 4 ErrMin= 3.86D-03
 ErrMax= 3.91D-03 EMaxC= 1.00D-01 BMatC= 1.42D-03 BMatP= 5.10D-03
 IDIUse=3 WtCom= 9.61D-01 WtEn= 3.91D-02
 Coeff-Com:  0.658D-02-0.440D-01-0.209D+00-0.191D+00 0.144D+01
 Coeff-En:   0.000D+00 0.000D+00 0.000D+00 0.000D+00 0.100D+01
 Coeff:      0.632D-02-0.423D-01-0.201D+00-0.184D+00 0.142D+01
 Gap=     0.453 Goal=   None    Shift=    0.000
 Gap=     0.356 Goal=   None    Shift=    0.000
 RMSDP=3.76D-04 MaxDP=1.25D-02 DE=-2.40D-03 OVMax= 4.04D-02

 Cycle   6  Pass 1  IDiag  1:
 E= -345.191884339109     Delta-E=       -0.002104780588 Rises=F Damp=F
 DIIS: error= 2.23D-03 at cycle   6 NSaved=   6.
 NSaved= 6 IEnMin= 6 EnMin= -345.191884339109     IErMin= 6 ErrMin= 2.23D-03
 ErrMax= 2.23D-03 EMaxC= 1.00D-01 BMatC= 7.02D-04 BMatP= 1.42D-03
 IDIUse=3 WtCom= 9.78D-01 WtEn= 2.23D-02
 Coeff-Com:  0.358D-02-0.237D-02-0.477D-01-0.297D+00 0.120D+00 0.122D+01
 Coeff-En:   0.000D+00 0.000D+00 0.000D+00 0.000D+00 0.000D+00 0.100D+01
 Coeff:      0.350D-02-0.231D-02-0.467D-01-0.290D+00 0.118D+00 0.122D+01
 Gap=     0.453 Goal=   None    Shift=    0.000
 Gap=     0.363 Goal=   None    Shift=    0.000
 RMSDP=2.59D-04 MaxDP=9.28D-03 DE=-2.10D-03 OVMax= 2.96D-02

 Cycle   7  Pass 1  IDiag  1:
 E= -345.192797438195     Delta-E=       -0.000913099086 Rises=F Damp=F
 DIIS: error= 1.72D-03 at cycle   7 NSaved=   7.
 NSaved= 7 IEnMin= 7 EnMin= -345.192797438195     IErMin= 7 ErrMin= 1.72D-03
 ErrMax= 1.72D-03 EMaxC= 1.00D-01 BMatC= 2.50D-04 BMatP= 7.02D-04
 IDIUse=3 WtCom= 9.83D-01 WtEn= 1.72D-02
 Coeff-Com: -0.510D-02 0.304D-01 0.156D+00 0.192D+00-0.682D+00-0.480D+00
 Coeff-Com:  0.179D+01
 Coeff-En:   0.000D+00 0.000D+00 0.000D+00 0.000D+00 0.000D+00 0.000D+00
 Coeff-En:   0.100D+01
 Coeff:     -0.502D-02 0.299D-01 0.153D+00 0.188D+00-0.670D+00-0.471D+00
 Coeff:      0.178D+01
 Gap=     0.454 Goal=   None    Shift=    0.000
 Gap=     0.365 Goal=   None    Shift=    0.000
 RMSDP=2.28D-04 MaxDP=9.54D-03 DE=-9.13D-04 OVMax= 2.59D-02

 Cycle   8  Pass 1  IDiag  1:
 E= -345.193315996098     Delta-E=       -0.000518557903 Rises=F Damp=F
 DIIS: error= 5.76D-04 at cycle   8 NSaved=   8.
 NSaved= 8 IEnMin= 8 EnMin= -345.193315996098     IErMin= 8 ErrMin= 5.76D-04
 ErrMax= 5.76D-04 EMaxC= 1.00D-01 BMatC= 9.88D-05 BMatP= 2.50D-04
 IDIUse=3 WtCom= 9.94D-01 WtEn= 5.76D-03
 Coeff-Com:  0.803D-03-0.863D-02-0.395D-01 0.514D-02 0.212D+00-0.324D+00
 Coeff-Com: -0.271D+00 0.142D+01
 Coeff-En:   0.000D+00 0.000D+00 0.000D+00 0.000D+00 0.000D+00 0.000D+00
 Coeff-En:   0.000D+00 0.100D+01
 Coeff:      0.799D-03-0.858D-02-0.393D-01 0.511D-02 0.210D+00-0.322D+00
 Coeff:     -0.269D+00 0.142D+01
 Gap=     0.454 Goal=   None    Shift=    0.000
 Gap=     0.367 Goal=   None    Shift=    0.000
 RMSDP=1.52D-04 MaxDP=4.58D-03 DE=-5.19D-04 OVMax= 1.19D-02

 Cycle   9  Pass 1  IDiag  1:
 E= -345.193548924832     Delta-E=       -0.000232928734 Rises=F Damp=F
 DIIS: error= 4.59D-04 at cycle   9 NSaved=   9.
 NSaved= 9 IEnMin= 9 EnMin= -345.193548924832     IErMin= 9 ErrMin= 4.59D-04
 ErrMax= 4.59D-04 EMaxC= 1.00D-01 BMatC= 6.91D-05 BMatP= 9.88D-05
 IDIUse=3 WtCom= 9.95D-01 WtEn= 4.59D-03
 Coeff-Com:  0.447D-03-0.283D-02-0.128D-01-0.162D-01 0.607D-01 0.669D-01
 Coeff-Com: -0.195D+00 0.492D-01 0.105D+01
 Coeff-En:   0.000D+00 0.000D+00 0.000D+00 0.000D+00 0.000D+00 0.000D+00
 Coeff-En:   0.000D+00 0.000D+00 0.100D+01
 Coeff:      0.445D-03-0.282D-02-0.127D-01-0.161D-01 0.604D-01 0.666D-01
 Coeff:     -0.194D+00 0.490D-01 0.105D+01
 Gap=     0.455 Goal=   None    Shift=    0.000
 Gap=     0.367 Goal=   None    Shift=    0.000
 RMSDP=7.70D-05 MaxDP=1.67D-03 DE=-2.33D-04 OVMax= 7.30D-03

 Cycle  10  Pass 1  IDiag  1:
 E= -345.193667381435     Delta-E=       -0.000118456602 Rises=F Damp=F
 DIIS: error= 4.74D-04 at cycle  10 NSaved=  10.
 NSaved=10 IEnMin=10 EnMin= -345.193667381435     IErMin= 9 ErrMin= 4.59D-04
 ErrMax= 4.74D-04 EMaxC= 1.00D-01 BMatC= 7.02D-05 BMatP= 6.91D-05
 IDIUse=3 WtCom= 9.95D-01 WtEn= 4.59D-03
 Coeff-Com:  0.667D-03-0.412D-02-0.190D-01-0.247D-01 0.877D-01 0.116D+00
 Coeff-Com: -0.294D+00 0.158D-01 0.164D+01-0.519D+00
 Coeff-En:   0.000D+00 0.000D+00 0.000D+00 0.000D+00 0.000D+00 0.000D+00
 Coeff-En:   0.000D+00 0.000D+00 0.000D+00 0.100D+01
 Coeff:      0.664D-03-0.411D-02-0.190D-01-0.246D-01 0.873D-01 0.115D+00
 Coeff:     -0.293D+00 0.158D-01 0.163D+01-0.512D+00
 Gap=     0.454 Goal=   None    Shift=    0.000
 Gap=     0.367 Goal=   None    Shift=    0.000
 RMSDP=3.12D-05 MaxDP=6.83D-04 DE=-1.18D-04 OVMax= 3.00D-03

 Cycle  11  Pass 1  IDiag  1:
 E= -345.193619204626     Delta-E=        0.000048176809 Rises=F Damp=F
 DIIS: error= 4.71D-04 at cycle  11 NSaved=  11.
 NSaved=11 IEnMin=10 EnMin= -345.193667381435     IErMin= 9 ErrMin= 4.59D-04
 ErrMax= 4.71D-04 EMaxC= 1.00D-01 BMatC= 6.88D-05 BMatP= 6.91D-05
 IDIUse=3 WtCom= 9.95D-01 WtEn= 4.59D-03
 Large coefficients: NSaved= 11 BigCof=   11.27 CofMax=   10.00 Det=-5.89D-08
 Inversion failed.  Reducing to 10 matrices.
 Large coefficients: NSaved= 10 BigCof=   11.32 CofMax=   10.00 Det=-6.03D-08
 Inversion failed.  Reducing to  9 matrices.
 Large coefficients: NSaved=  9 BigCof=   11.15 CofMax=   10.00 Det=-6.18D-08
 Inversion failed.  Reducing to  8 matrices.
 Large coefficients: NSaved=  8 BigCof=   10.55 CofMax=   10.00 Det=-6.47D-08
 Inversion failed.  Reducing to  7 matrices.
 Rare condition: small coef for last iteration:  0.000D+00
 Coeff-Com:  0.315D-03 0.117D+00-0.131D+00-0.337D+00 0.120D+01-0.863D+01
 Coeff-Com:  0.877D+01
 Coeff-En:   0.000D+00 0.000D+00 0.000D+00 0.000D+00 0.000D+00 0.000D+00
 Coeff-En:   0.100D+01
 Coeff:      0.315D-03 0.117D+00-0.131D+00-0.337D+00 0.120D+01-0.863D+01
 Coeff:      0.877D+01
 Gap=     0.453 Goal=   None    Shift=    0.000
 Gap=     0.366 Goal=   None    Shift=    0.000
 RMSDP=2.17D-04 MaxDP=4.74D-03 DE= 4.82D-05 OVMax= 2.10D-02

 Cycle  12  Pass 1  IDiag  1:
 E= -345.193312089478     Delta-E=        0.000307115148 Rises=F Damp=F
 DIIS: error= 3.84D-04 at cycle  12 NSaved=   8.
 NSaved= 8 IEnMin= 6 EnMin= -345.193667381435     IErMin= 8 ErrMin= 3.84D-04
 ErrMax= 3.84D-04 EMaxC= 1.00D-01 BMatC= 5.63D-05 BMatP= 6.88D-05
 IDIUse=3 WtCom= 9.96D-01 WtEn= 3.84D-03
 Rare condition: small coef for last iteration:  0.000D+00
 Coeff-Com: -0.391D-01-0.572D-01 0.321D+00-0.428D+00-0.260D+01-0.348D+01
 Coeff-Com:  0.386D+01 0.342D+01
 Coeff-En:   0.000D+00 0.000D+00 0.000D+00 0.000D+00 0.000D+00 0.000D+00
 Coeff-En:   0.000D+00 0.100D+01
 Coeff:     -0.391D-01-0.572D-01 0.321D+00-0.428D+00-0.260D+01-0.348D+01
 Coeff:      0.386D+01 0.342D+01
 Gap=     0.452 Goal=   None    Shift=    0.000
 Gap=     0.365 Goal=   None    Shift=    0.000
 RMSDP=4.67D-04 MaxDP=9.93D-03 DE= 3.07D-04 OVMax= 4.57D-02

 Cycle  13  Pass 1  IDiag  1:
 E= -345.192845386473     Delta-E=        0.000466703005 Rises=F Damp=F
 DIIS: error= 2.65D-04 at cycle  13 NSaved=   9.
 NSaved= 9 IEnMin= 6 EnMin= -345.193667381435     IErMin= 9 ErrMin= 2.65D-04
 ErrMax= 2.65D-04 EMaxC= 1.00D-01 BMatC= 2.64D-05 BMatP= 5.63D-05
 IDIUse=3 WtCom= 9.97D-01 WtEn= 2.65D-03
 Large coefficients: NSaved=  9 BigCof=   10.74 CofMax=   10.00 Det=-4.46D-08
 Inversion failed.  Reducing to  8 matrices.
 Large coefficients: NSaved=  8 BigCof=   10.10 CofMax=   10.00 Det=-4.60D-08
 Inversion failed.  Reducing to  7 matrices.
 Rare condition: small coef for last iteration:  0.000D+00
 Coeff-Com: -0.800D-02 0.153D+00-0.401D-01 0.836D+01-0.880D+01-0.637D+00
 Coeff-Com:  0.198D+01
 Coeff-En:   0.000D+00 0.000D+00 0.000D+00 0.000D+00 0.000D+00 0.000D+00
 Coeff-En:   0.100D+01
 Coeff:     -0.800D-02 0.153D+00-0.401D-01 0.836D+01-0.880D+01-0.637D+00
 Coeff:      0.198D+01
 Gap=     0.452 Goal=   None    Shift=    0.000
 Gap=     0.365 Goal=   None    Shift=    0.000
 RMSDP=2.82D-04 MaxDP=5.94D-03 DE= 4.67D-04 OVMax= 2.74D-02

 Cycle  14  Pass 1  IDiag  1:
 E= -345.192716254993     Delta-E=        0.000129131480 Rises=F Damp=F
 DIIS: error= 1.70D-04 at cycle  14 NSaved=   8.
 NSaved= 8 IEnMin= 4 EnMin= -345.193667381435     IErMin= 8 ErrMin= 1.70D-04
 ErrMax= 1.70D-04 EMaxC= 1.00D-01 BMatC= 8.50D-06 BMatP= 2.64D-05
 IDIUse=3 WtCom= 9.98D-01 WtEn= 1.70D-03
 Rare condition: small coef for last iteration:  0.000D+00
 Coeff-Com: -0.105D+00 0.352D+00 0.805D+00 0.425D+01-0.439D+01-0.159D+01
 Coeff-Com:  0.314D+00 0.137D+01
 Coeff-En:   0.000D+00 0.000D+00 0.000D+00 0.000D+00 0.000D+00 0.000D+00
 Coeff-En:   0.000D+00 0.100D+01
 Coeff:     -0.105D+00 0.352D+00 0.805D+00 0.425D+01-0.439D+01-0.159D+01
 Coeff:      0.314D+00 0.137D+01
 Gap=     0.452 Goal=   None    Shift=    0.000
 Gap=     0.365 Goal=   None    Shift=    0.000
 RMSDP=1.57D-04 MaxDP=3.35D-03 DE= 1.29D-04 OVMax= 1.55D-02

 Cycle  15  Pass 1  IDiag  1:
 E= -345.192690150979     Delta-E=        0.000026104014 Rises=F Damp=F
 DIIS: error= 7.60D-05 at cycle  15 NSaved=   9.
 NSaved= 9 IEnMin= 4 EnMin= -345.193667381435     IErMin= 9 ErrMin= 7.60D-05
 ErrMax= 7.60D-05 EMaxC= 1.00D-01 BMatC= 1.65D-06 BMatP= 8.50D-06
 IDIUse=1 WtCom= 1.00D+00 WtEn= 0.00D+00
 Coeff-Com:  0.469D-01-0.109D+00-0.463D+00-0.222D+01 0.233D+01 0.687D+00
 Coeff-Com: -0.385D+00-0.339D+00 0.145D+01
 Coeff:      0.469D-01-0.109D+00-0.463D+00-0.222D+01 0.233D+01 0.687D+00
 Coeff:     -0.385D+00-0.339D+00 0.145D+01
 Gap=     0.453 Goal=   None    Shift=    0.000
 Gap=     0.366 Goal=   None    Shift=    0.000
 RMSDP=9.99D-05 MaxDP=2.13D-03 DE= 2.61D-05 OVMax= 9.89D-03

 Cycle  16  Pass 1  IDiag  1:
 E= -345.192686209240     Delta-E=        0.000003941739 Rises=F Damp=F
 DIIS: error= 3.88D-05 at cycle  16 NSaved=  10.
 NSaved=10 IEnMin= 4 EnMin= -345.193667381435     IErMin=10 ErrMin= 3.88D-05
 ErrMax= 3.88D-05 EMaxC= 1.00D-01 BMatC= 4.15D-07 BMatP= 1.65D-06
 IDIUse=1 WtCom= 1.00D+00 WtEn= 0.00D+00
 Coeff-Com:  0.268D-01-0.104D+00-0.149D+00-0.140D+01 0.147D+01 0.381D+00
 Coeff-Com: -0.187D+00-0.297D+00 0.491D-01 0.121D+01
 Coeff:      0.268D-01-0.104D+00-0.149D+00-0.140D+01 0.147D+01 0.381D+00
 Coeff:     -0.187D+00-0.297D+00 0.491D-01 0.121D+01
 Gap=     0.453 Goal=   None    Shift=    0.000
 Gap=     0.365 Goal=   None    Shift=    0.000
 RMSDP=9.90D-06 MaxDP=2.29D-04 DE= 3.94D-06 OVMax= 5.60D-04

 Cycle  17  Pass 1  IDiag  1:
 E= -345.192686782980     Delta-E=       -0.000000573740 Rises=F Damp=F
 DIIS: error= 1.96D-05 at cycle  17 NSaved=  11.
 NSaved=11 IEnMin= 4 EnMin= -345.193667381435     IErMin=11 ErrMin= 1.96D-05
 ErrMax= 1.96D-05 EMaxC= 1.00D-01 BMatC= 1.11D-07 BMatP= 4.15D-07
 IDIUse=1 WtCom= 1.00D+00 WtEn= 0.00D+00
 Coeff-Com: -0.107D-01 0.285D-01 0.107D+00 0.802D+00-0.820D+00-0.197D+00
 Coeff-Com:  0.125D+00 0.110D+00-0.290D+00-0.301D+00 0.145D+01
 Coeff:     -0.107D-01 0.285D-01 0.107D+00 0.802D+00-0.820D+00-0.197D+00
 Coeff:      0.125D+00 0.110D+00-0.290D+00-0.301D+00 0.145D+01
 Gap=     0.452 Goal=   None    Shift=    0.000
 Gap=     0.365 Goal=   None    Shift=    0.000
 RMSDP=1.64D-05 MaxDP=3.36D-04 DE=-5.74D-07 OVMax= 1.57D-03

 Cycle  18  Pass 1  IDiag  1:
 E= -345.192686914953     Delta-E=       -0.000000131974 Rises=F Damp=F
 DIIS: error= 1.77D-05 at cycle  18 NSaved=  12.
 NSaved=12 IEnMin= 4 EnMin= -345.193667381435     IErMin=12 ErrMin= 1.77D-05
 ErrMax= 1.77D-05 EMaxC= 1.00D-01 BMatC= 5.05D-08 BMatP= 1.11D-07
 IDIUse=1 WtCom= 1.00D+00 WtEn= 0.00D+00
 Coeff-Com: -0.985D-02 0.271D-01 0.871D-01 0.472D+00-0.511D+00-0.141D+00
 Coeff-Com:  0.811D-01 0.691D-01-0.134D+00-0.145D-01-0.151D+00 0.122D+01
 Coeff:     -0.985D-02 0.271D-01 0.871D-01 0.472D+00-0.511D+00-0.141D+00
 Coeff:      0.811D-01 0.691D-01-0.134D+00-0.145D-01-0.151D+00 0.122D+01
 Gap=     0.453 Goal=   None    Shift=    0.000
 Gap=     0.365 Goal=   None    Shift=    0.000
 RMSDP=3.00D-06 MaxDP=1.08D-04 DE=-1.32D-07 OVMax= 2.26D-04

 Cycle  19  Pass 1  IDiag  1:
 E= -345.192686976048     Delta-E=       -0.000000061095 Rises=F Damp=F
 DIIS: error= 1.74D-05 at cycle  19 NSaved=  13.
 NSaved=13 IEnMin= 4 EnMin= -345.193667381435     IErMin=13 ErrMin= 1.74D-05
 ErrMax= 1.74D-05 EMaxC= 1.00D-01 BMatC= 3.05D-08 BMatP= 5.05D-08
 IDIUse=1 WtCom= 1.00D+00 WtEn= 0.00D+00
 Coeff-Com: -0.217D-02 0.987D-02 0.138D-01 0.614D-01-0.723D-01-0.253D-01
 Coeff-Com:  0.930D-02 0.762D-02-0.187D-01 0.755D-01-0.326D+00 0.196D+00
 Coeff-Com:  0.107D+01
 Coeff:     -0.217D-02 0.987D-02 0.138D-01 0.614D-01-0.723D-01-0.253D-01
 Coeff:      0.930D-02 0.762D-02-0.187D-01 0.755D-01-0.326D+00 0.196D+00
 Coeff:      0.107D+01
 Gap=     0.453 Goal=   None    Shift=    0.000
 Gap=     0.366 Goal=   None    Shift=    0.000
 RMSDP=3.37D-06 MaxDP=9.88D-05 DE=-6.11D-08 OVMax= 2.88D-04

 Cycle  20  Pass 1  IDiag  1:
 E= -345.192687019049     Delta-E=       -0.000000043000 Rises=F Damp=F
 DIIS: error= 1.77D-05 at cycle  20 NSaved=  14.
 NSaved=14 IEnMin= 4 EnMin= -345.193667381435     IErMin=13 ErrMin= 1.74D-05
 ErrMax= 1.77D-05 EMaxC= 1.00D-01 BMatC= 2.29D-08 BMatP= 3.05D-08
 IDIUse=1 WtCom= 1.00D+00 WtEn= 0.00D+00
 Coeff-Com:  0.593D-02-0.186D-01-0.591D-01-0.344D+00 0.369D+00 0.952D-01
 Coeff-Com: -0.546D-01-0.376D-01 0.111D+00-0.815D-01 0.251D+00-0.624D+00
 Coeff-Com: -0.741D+00 0.213D+01
 Coeff:      0.593D-02-0.186D-01-0.591D-01-0.344D+00 0.369D+00 0.952D-01
 Coeff:     -0.546D-01-0.376D-01 0.111D+00-0.815D-01 0.251D+00-0.624D+00
 Coeff:     -0.741D+00 0.213D+01
 Gap=     0.453 Goal=   None    Shift=    0.000
 Gap=     0.366 Goal=   None    Shift=    0.000
 RMSDP=4.82D-06 MaxDP=1.68D-04 DE=-4.30D-08 OVMax= 3.84D-04

 Cycle  21  Pass 1  IDiag  1:
 E= -345.192687100651     Delta-E=       -0.000000081602 Rises=F Damp=F
 DIIS: error= 1.55D-05 at cycle  21 NSaved=  15.
 NSaved=15 IEnMin= 4 EnMin= -345.193667381435     IErMin=15 ErrMin= 1.55D-05
 ErrMax= 1.55D-05 EMaxC= 1.00D-01 BMatC= 1.74D-08 BMatP= 2.29D-08
 IDIUse=1 WtCom= 1.00D+00 WtEn= 0.00D+00
 Coeff-Com: -0.679D-03-0.122D-02 0.115D-01 0.117D+00-0.111D+00-0.192D-01
 Coeff-Com:  0.112D-01 0.135D-01 0.157D-02-0.108D+00 0.110D+00 0.537D+00
 Coeff-Com: -0.974D+00-0.168D+01 0.309D+01
 Coeff:     -0.679D-03-0.122D-02 0.115D-01 0.117D+00-0.111D+00-0.192D-01
 Coeff:      0.112D-01 0.135D-01 0.157D-02-0.108D+00 0.110D+00 0.537D+00
 Coeff:     -0.974D+00-0.168D+01 0.309D+01
 Gap=     0.452 Goal=   None    Shift=    0.000
 Gap=     0.365 Goal=   None    Shift=    0.000
 RMSDP=7.00D-06 MaxDP=3.87D-04 DE=-8.16D-08 OVMax= 6.78D-04

 Cycle  22  Pass 1  IDiag  1:
 E= -345.192687225318     Delta-E=       -0.000000124667 Rises=F Damp=F
 DIIS: error= 1.02D-05 at cycle  22 NSaved=  16.
 NSaved=16 IEnMin= 4 EnMin= -345.193667381435     IErMin=16 ErrMin= 1.02D-05
 ErrMax= 1.02D-05 EMaxC= 1.00D-01 BMatC= 8.63D-09 BMatP= 1.74D-08
 IDIUse=1 WtCom= 1.00D+00 WtEn= 0.00D+00
 Coeff-Com: -0.187D-02 0.599D-02 0.214D-01 0.148D+00-0.158D+00-0.326D-01
 Coeff-Com:  0.257D-01 0.243D-02-0.690D-01 0.152D+00-0.210D+00 0.113D+00
 Coeff-Com:  0.562D+00-0.121D+01 0.848D-01 0.156D+01
 Coeff:     -0.187D-02 0.599D-02 0.214D-01 0.148D+00-0.158D+00-0.326D-01
 Coeff:      0.257D-01 0.243D-02-0.690D-01 0.152D+00-0.210D+00 0.113D+00
 Coeff:      0.562D+00-0.121D+01 0.848D-01 0.156D+01
 Gap=     0.453 Goal=   None    Shift=    0.000
 Gap=     0.365 Goal=   None    Shift=    0.000
 RMSDP=4.77D-06 MaxDP=3.00D-04 DE=-1.25D-07 OVMax= 5.28D-04

 Cycle  23  Pass 1  IDiag  1:
 E= -345.192687285874     Delta-E=       -0.000000060557 Rises=F Damp=F
 DIIS: error= 5.61D-06 at cycle  23 NSaved=  17.
 NSaved=17 IEnMin= 4 EnMin= -345.193667381435     IErMin=17 ErrMin= 5.61D-06
 ErrMax= 5.61D-06 EMaxC= 1.00D-01 BMatC= 3.33D-09 BMatP= 8.63D-09
 IDIUse=1 WtCom= 1.00D+00 WtEn= 0.00D+00
 Coeff-Com: -0.546D-03 0.137D-02 0.794D-02-0.241D-01 0.167D-01-0.268D-02
 Coeff-Com: -0.296D-02 0.615D-02-0.225D-01-0.348D-02 0.163D+00-0.440D+00
 Coeff-Com:  0.221D+00 0.140D+01-0.158D+01-0.947D+00 0.221D+01
 Coeff:     -0.546D-03 0.137D-02 0.794D-02-0.241D-01 0.167D-01-0.268D-02
 Coeff:     -0.296D-02 0.615D-02-0.225D-01-0.348D-02 0.163D+00-0.440D+00
 Coeff:      0.221D+00 0.140D+01-0.158D+01-0.947D+00 0.221D+01
 Gap=     0.453 Goal=   None    Shift=    0.000
 Gap=     0.366 Goal=   None    Shift=    0.000
 RMSDP=4.32D-06 MaxDP=2.58D-04 DE=-6.06D-08 OVMax= 4.62D-04

 Cycle  24  Pass 1  IDiag  1:
 E= -345.192687309416     Delta-E=       -0.000000023541 Rises=F Damp=F
 DIIS: error= 1.54D-06 at cycle  24 NSaved=  18.
 NSaved=18 IEnMin= 4 EnMin= -345.193667381435     IErMin=18 ErrMin= 1.54D-06
 ErrMax= 1.54D-06 EMaxC= 1.00D-01 BMatC= 5.09D-10 BMatP= 3.33D-09
 IDIUse=1 WtCom= 1.00D+00 WtEn= 0.00D+00
 Coeff-Com:  0.344D-03-0.803D-03-0.538D-02-0.200D-01 0.231D-01 0.508D-02
 Coeff-Com: -0.483D-02 0.141D-02 0.255D-01-0.439D-01-0.312D-01 0.223D+00
 Coeff-Com: -0.223D+00-0.309D+00 0.516D+00 0.142D+00-0.919D+00 0.162D+01
 Coeff:      0.344D-03-0.803D-03-0.538D-02-0.200D-01 0.231D-01 0.508D-02
 Coeff:     -0.483D-02 0.141D-02 0.255D-01-0.439D-01-0.312D-01 0.223D+00
 Coeff:     -0.223D+00-0.309D+00 0.516D+00 0.142D+00-0.919D+00 0.162D+01
 Gap=     0.453 Goal=   None    Shift=    0.000
 Gap=     0.365 Goal=   None    Shift=    0.000
 RMSDP=1.14D-06 MaxDP=6.95D-05 DE=-2.35D-08 OVMax= 1.23D-04

 Cycle  25  Pass 1  IDiag  1:
 E= -345.192687311215     Delta-E=       -0.000000001799 Rises=F Damp=F
 DIIS: error= 3.90D-07 at cycle  25 NSaved=  19.
 NSaved=19 IEnMin= 4 EnMin= -345.193667381435     IErMin=19 ErrMin= 3.90D-07
 ErrMax= 3.90D-07 EMaxC= 1.00D-01 BMatC= 6.89D-11 BMatP= 5.09D-10
 IDIUse=1 WtCom= 1.00D+00 WtEn= 0.00D+00
 Coeff-Com:  0.186D-03-0.456D-03-0.185D-02-0.586D-02 0.629D-02 0.288D-02
 Coeff-Com: -0.420D-03-0.334D-02-0.369D-03 0.177D-01-0.265D-01-0.225D-01
 Coeff-Com:  0.683D-01-0.257D-01-0.481D-01 0.954D-01 0.212D-01-0.576D+00
 Coeff-Com:  0.150D+01
 Coeff:      0.186D-03-0.456D-03-0.185D-02-0.586D-02 0.629D-02 0.288D-02
 Coeff:     -0.420D-03-0.334D-02-0.369D-03 0.177D-01-0.265D-01-0.225D-01
 Coeff:      0.683D-01-0.257D-01-0.481D-01 0.954D-01 0.212D-01-0.576D+00
 Coeff:      0.150D+01
 Gap=     0.453 Goal=   None    Shift=    0.000
 Gap=     0.365 Goal=   None    Shift=    0.000
 RMSDP=2.52D-07 MaxDP=1.27D-05 DE=-1.80D-09 OVMax= 2.17D-05

 Cycle  26  Pass 1  IDiag  1:
 E= -345.192687311311     Delta-E=       -0.000000000097 Rises=F Damp=F
 DIIS: error= 1.87D-07 at cycle  26 NSaved=  20.
 NSaved=20 IEnMin= 4 EnMin= -345.193667381435     IErMin=20 ErrMin= 1.87D-07
 ErrMax= 1.87D-07 EMaxC= 1.00D-01 BMatC= 1.49D-11 BMatP= 6.89D-11
 IDIUse=1 WtCom= 1.00D+00 WtEn= 0.00D+00
 Coeff-Com: -0.237D-03 0.589D-03 0.209D-02 0.794D-02-0.870D-02-0.274D-02
 Coeff-Com:  0.113D-02 0.144D-02-0.410D-02-0.423D-03 0.134D-01-0.187D-01
 Coeff-Com:  0.115D-01 0.376D-01-0.489D-01-0.574D-01 0.133D+00-0.321D-01
 Coeff-Com: -0.549D+00 0.151D+01
 Coeff:     -0.237D-03 0.589D-03 0.209D-02 0.794D-02-0.870D-02-0.274D-02
 Coeff:      0.113D-02 0.144D-02-0.410D-02-0.423D-03 0.134D-01-0.187D-01
 Coeff:      0.115D-01 0.376D-01-0.489D-01-0.574D-01 0.133D+00-0.321D-01
 Coeff:     -0.549D+00 0.151D+01
 Gap=     0.453 Goal=   None    Shift=    0.000
 Gap=     0.365 Goal=   None    Shift=    0.000
 RMSDP=1.54D-07 MaxDP=2.94D-06 DE=-9.67D-11 OVMax= 1.44D-05

 Cycle  27  Pass 1  IDiag  1:
 E= -345.192687311334     Delta-E=       -0.000000000022 Rises=F Damp=F
 DIIS: error= 1.44D-07 at cycle  27 NSaved=  20.
 NSaved=20 IEnMin= 4 EnMin= -345.193667381435     IErMin=20 ErrMin= 1.44D-07
 ErrMax= 1.44D-07 EMaxC= 1.00D-01 BMatC= 6.65D-12 BMatP= 1.49D-11
 IDIUse=1 WtCom= 1.00D+00 WtEn= 0.00D+00
 Coeff-Com:  0.450D-04-0.939D-04-0.677D-03-0.404D-02 0.423D-02 0.952D-03
 Coeff-Com: -0.498D-03-0.425D-03 0.764D-03 0.152D-02-0.270D-02-0.105D-01
 Coeff-Com:  0.144D-01 0.888D-02-0.232D-01-0.984D-02 0.113D+00-0.214D+00
 Coeff-Com: -0.333D+00 0.146D+01
 Coeff:      0.450D-04-0.939D-04-0.677D-03-0.404D-02 0.423D-02 0.952D-03
 Coeff:     -0.498D-03-0.425D-03 0.764D-03 0.152D-02-0.270D-02-0.105D-01
 Coeff:      0.144D-01 0.888D-02-0.232D-01-0.984D-02 0.113D+00-0.214D+00
 Coeff:     -0.333D+00 0.146D+01
 Gap=     0.453 Goal=   None    Shift=    0.000
 Gap=     0.365 Goal=   None    Shift=    0.000
 RMSDP=1.16D-07 MaxDP=2.51D-06 DE=-2.22D-11 OVMax= 1.12D-05

 Cycle  28  Pass 1  IDiag  1:
 E= -345.192687311340     Delta-E=       -0.000000000007 Rises=F Damp=F
 DIIS: error= 8.10D-08 at cycle  28 NSaved=  20.
 NSaved=20 IEnMin= 4 EnMin= -345.193667381435     IErMin=20 ErrMin= 8.10D-08
 ErrMax= 8.10D-08 EMaxC= 1.00D-01 BMatC= 2.18D-12 BMatP= 6.65D-12
 IDIUse=1 WtCom= 1.00D+00 WtEn= 0.00D+00
 Coeff-Com: -0.667D-05-0.503D-06 0.116D-03-0.667D-04 0.624D-04-0.745D-04
 Coeff-Com: -0.468D-04 0.624D-04-0.869D-04-0.298D-03 0.181D-02 0.179D-02
 Coeff-Com: -0.102D-01 0.137D-01 0.168D-03-0.559D-01 0.216D+00-0.458D+00
 Coeff-Com: -0.270D+00 0.156D+01
 Coeff:     -0.667D-05-0.503D-06 0.116D-03-0.667D-04 0.624D-04-0.745D-04
 Coeff:     -0.468D-04 0.624D-04-0.869D-04-0.298D-03 0.181D-02 0.179D-02
 Coeff:     -0.102D-01 0.137D-01 0.168D-03-0.559D-01 0.216D+00-0.458D+00
 Coeff:     -0.270D+00 0.156D+01
 Gap=     0.453 Goal=   None    Shift=    0.000
 Gap=     0.365 Goal=   None    Shift=    0.000
 RMSDP=4.54D-08 MaxDP=7.36D-07 DE=-6.59D-12 OVMax= 3.87D-06

 Cycle  29  Pass 1  IDiag  1:
 E= -345.192687311343     Delta-E=       -0.000000000003 Rises=F Damp=F
 DIIS: error= 3.73D-08 at cycle  29 NSaved=  20.
 NSaved=20 IEnMin= 4 EnMin= -345.193667381435     IErMin=20 ErrMin= 3.73D-08
 ErrMax= 3.73D-08 EMaxC= 1.00D-01 BMatC= 4.65D-13 BMatP= 2.18D-12
 IDIUse=1 WtCom= 1.00D+00 WtEn= 0.00D+00
 Coeff-Com: -0.987D-05 0.150D-04 0.102D-03 0.583D-03-0.612D-03-0.116D-03
 Coeff-Com:  0.532D-04 0.600D-04-0.866D-04 0.322D-03-0.704D-03 0.297D-03
 Coeff-Com: -0.588D-04 0.351D-02-0.156D-01 0.806D-02 0.206D+00-0.360D+00
 Coeff-Com: -0.436D+00 0.159D+01
 Coeff:     -0.987D-05 0.150D-04 0.102D-03 0.583D-03-0.612D-03-0.116D-03
 Coeff:      0.532D-04 0.600D-04-0.866D-04 0.322D-03-0.704D-03 0.297D-03
 Coeff:     -0.588D-04 0.351D-02-0.156D-01 0.806D-02 0.206D+00-0.360D+00
 Coeff:     -0.436D+00 0.159D+01
 Gap=     0.453 Goal=   None    Shift=    0.000
 Gap=     0.365 Goal=   None    Shift=    0.000
 RMSDP=1.76D-08 MaxDP=4.10D-07 DE=-2.84D-12 OVMax= 1.26D-06

 Cycle  30  Pass 1  IDiag  1:
 E= -345.192687311343     Delta-E=        0.000000000000 Rises=F Damp=F
 DIIS: error= 1.60D-08 at cycle  30 NSaved=  20.
 NSaved=20 IEnMin= 4 EnMin= -345.193667381435     IErMin=20 ErrMin= 1.60D-08
 ErrMax= 1.60D-08 EMaxC= 1.00D-01 BMatC= 8.14D-14 BMatP= 4.65D-13
 IDIUse=1 WtCom= 1.00D+00 WtEn= 0.00D+00
 Coeff-Com: -0.102D-04 0.364D-04 0.816D-04 0.492D-03-0.540D-03-0.131D-03
 Coeff-Com:  0.616D-04 0.863D-04-0.162D-03 0.248D-03 0.132D-02-0.446D-02
 Coeff-Com:  0.220D-02 0.130D-01-0.469D-01 0.492D-01 0.895D-01-0.952D-01
 Coeff-Com: -0.472D+00 0.146D+01
 Coeff:     -0.102D-04 0.364D-04 0.816D-04 0.492D-03-0.540D-03-0.131D-03
 Coeff:      0.616D-04 0.863D-04-0.162D-03 0.248D-03 0.132D-02-0.446D-02
 Coeff:      0.220D-02 0.130D-01-0.469D-01 0.492D-01 0.895D-01-0.952D-01
 Coeff:     -0.472D+00 0.146D+01
 Gap=     0.453 Goal=   None    Shift=    0.000
 Gap=     0.365 Goal=   None    Shift=    0.000
 RMSDP=5.96D-09 MaxDP=1.43D-07 DE=-4.55D-13 OVMax= 3.81D-07

 SCF Done:  E(UHF) =  -345.192687311     A.U. after   30 cycles
             Convg  =    0.5960D-08             -V/T =  2.0020
 <Sx>= 0.0000 <Sy>= 0.0000 <Sz>= 0.5000 <S**2>= 0.7683 S= 0.5091
 <L.S>= 0.000000000000E+00
 KE= 3.444920985903D+02 PE=-1.387833257571D+03 EE= 4.090637743076D+02
 Annihilation of the first spin contaminant:
 S**2 before annihilation     0.7683,   after     0.7503
 Leave Link  502 at Tue May  1 13:24:56 2018, MaxMem=  671088640 cpu:     549.8
 (Enter /shared/apps/gaussian/G09_LINUX_LINDA/g09/l601.exe)
 Copying SCF densities to generalized density rwf, IOpCl= 1 IROHF=0.

 **********************************************************************

            Population analysis using the SCF density.

 **********************************************************************

 Orbital symmetries:
 Alpha Orbitals:
       Occupied  (A) (A) (A) (A) (A) (A) (A) (A) (A) (A) (A) (A)
                 (A) (A) (A) (A) (A) (A) (A) (A) (A) (A) (A) (A)
                 (A) (A) (A) (A) (A)
       Virtual   (A) (A) (A) (A) (A) (A) (A) (A) (A) (A) (A) (A)
                 (A) (A) (A) (A) (A) (A) (A) (A) (A) (A) (A) (A)
                 (A) (A) (A) (A) (A) (A) (A) (A) (A) (A) (A) (A)
                 (A) (A) (A) (A) (A) (A) (A) (A) (A) (A) (A) (A)
                 (A) (A) (A) (A) (A) (A) (A) (A) (A) (A) (A) (A)
                 (A) (A) (A) (A) (A) (A) (A) (A) (A) (A) (A) (A)
                 (A) (A) (A) (A) (A) (A) (A) (A) (A) (A) (A) (A)
                 (A) (A) (A) (A) (A) (A) (A) (A) (A) (A) (A) (A)
                 (A) (A)
 Beta  Orbitals:
       Occupied  (A) (A) (A) (A) (A) (A) (A) (A) (A) (A) (A) (A)
                 (A) (A) (A) (A) (A) (A) (A) (A) (A) (A) (A) (A)
                 (A) (A) (A) (A)
       Virtual   (A) (A) (A) (A) (A) (A) (A) (A) (A) (A) (A) (A)
                 (A) (A) (A) (A) (A) (A) (A) (A) (A) (A) (A) (A)
                 (A) (A) (A) (A) (A) (A) (A) (A) (A) (A) (A) (A)
                 (A) (A) (A) (A) (A) (A) (A) (A) (A) (A) (A) (A)
                 (A) (A) (A) (A) (A) (A) (A) (A) (A) (A) (A) (A)
                 (A) (A) (A) (A) (A) (A) (A) (A) (A) (A) (A) (A)
                 (A) (A) (A) (A) (A) (A) (A) (A) (A) (A) (A) (A)
                 (A) (A) (A) (A) (A) (A) (A) (A) (A) (A) (A) (A)
                 (A) (A) (A)
 The electronic state is 2-A.
 Alpha  occ. eigenvalues --  -20.71672 -20.70203 -11.21144 -11.21090 -11.20957
 Alpha  occ. eigenvalues --  -11.19980 -11.19857  -1.60771  -1.24434  -1.07374
 Alpha  occ. eigenvalues --   -0.96011  -0.92206  -0.84699  -0.80336  -0.77862
 Alpha  occ. eigenvalues --   -0.72998  -0.67696  -0.60642  -0.57217  -0.56396
 Alpha  occ. eigenvalues --   -0.54954  -0.54261  -0.53127  -0.51490  -0.49884
 Alpha  occ. eigenvalues --   -0.47679  -0.46436  -0.42800  -0.28116
 Alpha virt. eigenvalues --    0.17140   0.18676   0.24579   0.27854   0.29219
 Alpha virt. eigenvalues --    0.29447   0.29990   0.34424   0.34701   0.35325
 Alpha virt. eigenvalues --    0.36131   0.38425   0.42522   0.45433   0.49418
 Alpha virt. eigenvalues --    0.51972   0.56865   0.73428   0.74190   0.75369
 Alpha virt. eigenvalues --    0.79379   0.81852   0.83331   0.88123   0.89757
 Alpha virt. eigenvalues --    0.90765   0.93005   0.94613   0.97969   0.98680
 Alpha virt. eigenvalues --    1.00716   1.03867   1.04380   1.07515   1.08472
 Alpha virt. eigenvalues --    1.09100   1.14180   1.15700   1.17050   1.17949
 Alpha virt. eigenvalues --    1.18915   1.19808   1.20584   1.21706   1.23509
 Alpha virt. eigenvalues --    1.24587   1.25142   1.28809   1.34908   1.39330
 Alpha virt. eigenvalues --    1.44212   1.50510   1.56016   1.60839   1.63346
 Alpha virt. eigenvalues --    1.69521   1.74706   1.77825   1.79798   1.82188
 Alpha virt. eigenvalues --    1.88770   1.97622   2.00478   2.10054   2.13390
 Alpha virt. eigenvalues --    2.14303   2.17880   2.20362   2.23663   2.27330
 Alpha virt. eigenvalues --    2.35440   2.42629   2.44179   2.49580   2.52819
 Alpha virt. eigenvalues --    2.55631   2.59826   2.62107   2.64075   2.65151
 Alpha virt. eigenvalues --    2.69875   2.74266   2.75223   2.76305   2.86161
 Alpha virt. eigenvalues --    2.89615   2.96160   3.01805   3.23704   3.26387
 Alpha virt. eigenvalues --    3.37387   3.81458   4.11663   4.55522   4.69173
 Alpha virt. eigenvalues --    4.72947   4.78582   4.96143
  Beta  occ. eigenvalues --  -20.69356 -20.67787 -11.21202 -11.21097 -11.21041
  Beta  occ. eigenvalues --  -11.19751 -11.19669  -1.54420  -1.15184  -1.07392
  Beta  occ. eigenvalues --   -0.95492  -0.92173  -0.83778  -0.78614  -0.71452
  Beta  occ. eigenvalues --   -0.67616  -0.60675  -0.59030  -0.57335  -0.56250
  Beta  occ. eigenvalues --   -0.53225  -0.51715  -0.51010  -0.49690  -0.47515
  Beta  occ. eigenvalues --   -0.46167  -0.42304  -0.28128
  Beta virt. eigenvalues --    0.08421   0.17956   0.19163   0.24667   0.28181
  Beta virt. eigenvalues --    0.29427   0.29533   0.31856   0.34460   0.34800
  Beta virt. eigenvalues --    0.35472   0.36320   0.38591   0.42388   0.45925
  Beta virt. eigenvalues --    0.50819   0.52235   0.56941   0.73601   0.74300
  Beta virt. eigenvalues --    0.75347   0.79383   0.82288   0.84309   0.88332
  Beta virt. eigenvalues --    0.90551   0.91505   0.93702   0.94949   0.98253
  Beta virt. eigenvalues --    0.98917   1.01442   1.04808   1.06080   1.07808
  Beta virt. eigenvalues --    1.08714   1.12957   1.14902   1.16641   1.17378
  Beta virt. eigenvalues --    1.18582   1.19439   1.19902   1.20679   1.22231
  Beta virt. eigenvalues --    1.23985   1.25303   1.28074   1.32729   1.35519
  Beta virt. eigenvalues --    1.39417   1.44670   1.51083   1.56680   1.63362
  Beta virt. eigenvalues --    1.63461   1.70417   1.75481   1.78480   1.81437
  Beta virt. eigenvalues --    1.85802   1.89222   2.00589   2.06657   2.10267
  Beta virt. eigenvalues --    2.14372   2.17270   2.19741   2.20478   2.23907
  Beta virt. eigenvalues --    2.27296   2.35943   2.42880   2.44906   2.49708
  Beta virt. eigenvalues --    2.52930   2.56189   2.60176   2.63114   2.64505
  Beta virt. eigenvalues --    2.65287   2.70094   2.74885   2.75649   2.77549
  Beta virt. eigenvalues --    2.87381   2.92174   2.96149   3.02189   3.23955
  Beta virt. eigenvalues --    3.27837   3.37423   3.83064   4.14103   4.55486
  Beta virt. eigenvalues --    4.69428   4.73057   4.78731   4.96135
          Condensed to atoms (all electrons):
              1          2          3          4          5          6
     1  O    8.365216   0.044138   0.003188   0.000215  -0.079269  -0.000009
     2  O    0.044138   8.049938  -0.000080  -0.000004   0.003706   0.000000
     3  C    0.003188  -0.000080   5.049656   0.677936   0.319056  -0.062468
     4  C    0.000215  -0.000004   0.677936   4.972738  -0.061087   0.339367
     5  C   -0.079269   0.003706   0.319056  -0.061087   5.248406  -0.007017
     6  C   -0.000009   0.000000  -0.062468   0.339367  -0.007017   5.116788
     7  C    0.000000   0.000000  -0.067328   0.337920   0.003492  -0.051815
     8  H   -0.030277   0.251450   0.000017   0.000001  -0.000483   0.000000
     9  H    0.000035   0.000000   0.392998  -0.046965  -0.041874   0.003793
    10  H   -0.171959   0.019253  -0.031168  -0.005006   0.418968   0.000253
    11  H    0.002179  -0.000149  -0.041687   0.003808   0.368261   0.000183
    12  H    0.001623  -0.000086  -0.043488  -0.001968   0.382964  -0.001497
    13  H    0.000001   0.000000  -0.009462  -0.039281   0.000404   0.395347
    14  H   -0.000028   0.000001  -0.001818  -0.043656  -0.000253   0.387182
    15  H    0.000000   0.000000   0.003915  -0.038225   0.000229   0.389959
    16  H    0.000000   0.000000  -0.002085  -0.044584  -0.000088   0.003659
    17  H    0.000000   0.000000   0.004433  -0.040217  -0.000112  -0.004351
    18  H   -0.000007   0.000000  -0.010747  -0.039555   0.000139   0.002382
              7          8          9         10         11         12
     1  O    0.000000  -0.030277   0.000035  -0.171959   0.002179   0.001623
     2  O    0.000000   0.251450   0.000000   0.019253  -0.000149  -0.000086
     3  C   -0.067328   0.000017   0.392998  -0.031168  -0.041687  -0.043488
     4  C    0.337920   0.000001  -0.046965  -0.005006   0.003808  -0.001968
     5  C    0.003492  -0.000483  -0.041874   0.418968   0.368261   0.382964
     6  C   -0.051815   0.000000   0.003793   0.000253   0.000183  -0.001497
     7  C    5.108961   0.000000  -0.003673  -0.000034  -0.000119   0.000067
     8  H    0.000000   0.303728   0.000000  -0.002081   0.000070   0.000003
     9  H   -0.003673   0.000000   0.531540  -0.000049  -0.001407   0.003535
    10  H   -0.000034  -0.002081  -0.000049   0.517160  -0.025888  -0.020129
    11  H   -0.000119   0.000070  -0.001407  -0.025888   0.585565  -0.025958
    12  H    0.000067   0.000003   0.003535  -0.020129  -0.025958   0.551545
    13  H    0.002297   0.000000   0.000002  -0.000072   0.000134   0.001224
    14  H    0.003546   0.000000  -0.000149   0.000833  -0.000139  -0.005020
    15  H   -0.004779   0.000000  -0.000100  -0.000009  -0.000005   0.000141
    16  H    0.383948   0.000000   0.002397  -0.000015   0.000015   0.000012
    17  H    0.388403   0.000000   0.000110  -0.000001   0.000002   0.000006
    18  H    0.396908   0.000000   0.000222   0.000137  -0.000016  -0.000022
             13         14         15         16         17         18
     1  O    0.000001  -0.000028   0.000000   0.000000   0.000000  -0.000007
     2  O    0.000000   0.000001   0.000000   0.000000   0.000000   0.000000
     3  C   -0.009462  -0.001818   0.003915  -0.002085   0.004433  -0.010747
     4  C   -0.039281  -0.043656  -0.038225  -0.044584  -0.040217  -0.039555
     5  C    0.000404  -0.000253   0.000229  -0.000088  -0.000112   0.000139
     6  C    0.395347   0.387182   0.389959   0.003659  -0.004351   0.002382
     7  C    0.002297   0.003546  -0.004779   0.383948   0.388403   0.396908
     8  H    0.000000   0.000000   0.000000   0.000000   0.000000   0.000000
     9  H    0.000002  -0.000149  -0.000100   0.002397   0.000110   0.000222
    10  H   -0.000072   0.000833  -0.000009  -0.000015  -0.000001   0.000137
    11  H    0.000134  -0.000139  -0.000005   0.000015   0.000002  -0.000016
    12  H    0.001224  -0.005020   0.000141   0.000012   0.000006  -0.000022
    13  H    0.529131  -0.026338  -0.028494  -0.000109   0.000322  -0.000092
    14  H   -0.026338   0.539733  -0.024231  -0.000124  -0.000053  -0.000082
    15  H   -0.028494  -0.024231   0.541943   0.000048   0.001820   0.000263
    16  H   -0.000109  -0.000124   0.000048   0.541984  -0.022321  -0.025929
    17  H    0.000322  -0.000053   0.001820  -0.022321   0.547650  -0.029780
    18  H   -0.000092  -0.000082   0.000263  -0.025929  -0.029780   0.535219
 Mulliken atomic charges:
              1
     1  O   -0.135045
     2  O   -0.368167
     3  C   -0.180869
     4  C    0.028562
     5  C   -0.555444
     6  C   -0.511756
     7  C   -0.497795
     8  H    0.477574
     9  H    0.159585
    10  H    0.299807
    11  H    0.135152
    12  H    0.157049
    13  H    0.174986
    14  H    0.170595
    15  H    0.157523
    16  H    0.163192
    17  H    0.154089
    18  H    0.170960
 Sum of Mulliken atomic charges =   0.00000
 Mulliken charges with hydrogens summed into heavy atoms:
              1
     1  O    0.164762
     2  O    0.109407
     3  C   -0.021284
     4  C    0.028562
     5  C   -0.263242
     6  C   -0.008651
     7  C   -0.009553
 Sum of Mulliken charges with hydrogens summed into heavy atoms =   0.00000
          Atomic-Atomic Spin Densities.
              1          2          3          4          5          6
     1  O    1.027698  -0.107426   0.001118  -0.000043  -0.009036   0.000003
     2  O   -0.107426   0.210074  -0.000021   0.000000   0.000233   0.000000
     3  C    0.001118  -0.000021   0.147139   0.001393  -0.018964  -0.001007
     4  C   -0.000043   0.000000   0.001393  -0.129605  -0.001323   0.004393
     5  C   -0.009036   0.000233  -0.018964  -0.001323   0.059891   0.000107
     6  C    0.000003   0.000000  -0.001007   0.004393   0.000107   0.015258
     7  C    0.000000   0.000000  -0.001257   0.004543   0.000000  -0.000234
     8  H    0.001236  -0.002846   0.000001   0.000000   0.000047   0.000000
     9  H    0.000008   0.000000  -0.000592   0.000624   0.000362  -0.000012
    10  H   -0.039663   0.002520  -0.007830  -0.000003   0.018308  -0.000085
    11  H    0.000699  -0.000022   0.000715  -0.000139  -0.000332   0.000030
    12  H    0.000558  -0.000015   0.000733   0.000024  -0.001034   0.000188
    13  H    0.000000   0.000000   0.000363   0.001681  -0.000020  -0.001251
    14  H   -0.000009   0.000000  -0.000510   0.002270   0.000208  -0.001464
    15  H    0.000000   0.000000   0.000020   0.000328  -0.000001  -0.000517
    16  H    0.000000   0.000000  -0.000113   0.002068  -0.000007  -0.000033
    17  H    0.000000   0.000000   0.000052   0.000274  -0.000002  -0.000008
    18  H    0.000002   0.000000  -0.000030   0.001923   0.000023  -0.000017
              7          8          9         10         11         12
     1  O    0.000000   0.001236   0.000008  -0.039663   0.000699   0.000558
     2  O    0.000000  -0.002846   0.000000   0.002520  -0.000022  -0.000015
     3  C   -0.001257   0.000001  -0.000592  -0.007830   0.000715   0.000733
     4  C    0.004543   0.000000   0.000624  -0.000003  -0.000139   0.000024
     5  C    0.000000   0.000047   0.000362   0.018308  -0.000332  -0.001034
     6  C   -0.000234   0.000000  -0.000012  -0.000085   0.000030   0.000188
     7  C    0.015185   0.000000   0.000035   0.000014   0.000000  -0.000009
     8  H    0.000000  -0.010381   0.000000   0.000022  -0.000005   0.000000
     9  H    0.000035   0.000000  -0.010955  -0.000166   0.000104  -0.000023
    10  H    0.000014   0.000022  -0.000166   0.007208  -0.000556  -0.000696
    11  H    0.000000  -0.000005   0.000104  -0.000556  -0.004738   0.000657
    12  H   -0.000009   0.000000  -0.000023  -0.000696   0.000657  -0.003559
    13  H    0.000007   0.000000  -0.000019  -0.000005  -0.000013  -0.000009
    14  H   -0.000032   0.000000   0.000011   0.000072   0.000006  -0.000005
    15  H   -0.000051   0.000000   0.000001   0.000000   0.000000  -0.000005
    16  H   -0.000809   0.000000  -0.000148  -0.000001  -0.000001   0.000000
    17  H   -0.000621   0.000000  -0.000005  -0.000001   0.000000   0.000001
    18  H   -0.001524   0.000000   0.000096   0.000011   0.000001   0.000000
             13         14         15         16         17         18
     1  O    0.000000  -0.000009   0.000000   0.000000   0.000000   0.000002
     2  O    0.000000   0.000000   0.000000   0.000000   0.000000   0.000000
     3  C    0.000363  -0.000510   0.000020  -0.000113   0.000052  -0.000030
     4  C    0.001681   0.002270   0.000328   0.002068   0.000274   0.001923
     5  C   -0.000020   0.000208  -0.000001  -0.000007  -0.000002   0.000023
     6  C   -0.001251  -0.001464  -0.000517  -0.000033  -0.000008  -0.000017
     7  C    0.000007  -0.000032  -0.000051  -0.000809  -0.000621  -0.001524
     8  H    0.000000   0.000000   0.000000   0.000000   0.000000   0.000000
     9  H   -0.000019   0.000011   0.000001  -0.000148  -0.000005   0.000096
    10  H   -0.000005   0.000072   0.000000  -0.000001  -0.000001   0.000011
    11  H   -0.000013   0.000006   0.000000  -0.000001   0.000000   0.000001
    12  H   -0.000009  -0.000005  -0.000005   0.000000   0.000001   0.000000
    13  H   -0.005725   0.000993   0.000270  -0.000024  -0.000010   0.000009
    14  H    0.000993  -0.005125   0.000023   0.000009   0.000007  -0.000020
    15  H    0.000270   0.000023  -0.000774   0.000009  -0.000027  -0.000007
    16  H   -0.000024   0.000009   0.000009  -0.005874  -0.000030   0.001053
    17  H   -0.000010   0.000007  -0.000027  -0.000030  -0.000465   0.000277
    18  H    0.000009  -0.000020  -0.000007   0.001053   0.000277  -0.005360
 Mulliken atomic spin densities:
              1
     1  O    0.875145
     2  O    0.102497
     3  C    0.121210
     4  C   -0.111594
     5  C    0.048463
     6  C    0.015350
     7  C    0.015246
     8  H   -0.011926
     9  H   -0.010680
    10  H   -0.020850
    11  H   -0.003595
    12  H   -0.003195
    13  H   -0.003752
    14  H   -0.003566
    15  H   -0.000731
    16  H   -0.003902
    17  H   -0.000559
    18  H   -0.003562
 Sum of Mulliken atomic spin densities =   1.00000
 Electronic spatial extent (au):  <R**2>=           1464.4206
 Charge=              0.0000 electrons
 Dipole moment (field-independent basis, Debye):
    X=              2.4963    Y=             -1.1799    Z=              0.7763  Tot=              2.8681
 Quadrupole moment (field-independent basis, Debye-Ang):
   XX=            -32.7933   YY=            -44.5246   ZZ=            -45.8801
   XY=             -4.7841   XZ=              5.7241   YZ=             -1.1290
 Traceless Quadrupole moment (field-independent basis, Debye-Ang):
   XX=              8.2727   YY=             -3.4586   ZZ=             -4.8141
   XY=             -4.7841   XZ=              5.7241   YZ=             -1.1290
 Octapole moment (field-independent basis, Debye-Ang**2):
  XXX=             95.2537  YYY=             -3.8191  ZZZ=             -2.7554  XYY=             15.1992
  XXY=            -21.3176  XXZ=             17.4443  XZZ=              8.7094  YZZ=             -2.9458
  YYZ=             -1.0312  XYZ=             -1.1555
 Hexadecapole moment (field-independent basis, Debye-Ang**3):
 XXXX=          -1097.9033 YYYY=           -261.0146 ZZZZ=           -191.0124 XXXY=           -103.7972
 XXXZ=             81.9726 YYYX=            -17.3849 YYYZ=              1.0289 ZZZX=             -7.6490
 ZZZY=             -3.1137 XXYY=           -264.1986 XXZZ=           -269.6378 YYZZ=            -76.4603
 XXYZ=             -9.8528 YYXZ=             -6.1893 ZZXY=             -0.6728
 N-N= 2.890846973614D+02 E-N=-2.072134498413D+03  KE= 5.150323223284D+02
                          Isotropic Fermi Contact Couplings
        Atom                 a.u.       MegaHertz       Gauss      10(-4) cm-1
     1  O(17)              0.20843    -126.34964     -45.08469     -42.14570
     2  O(17)              0.07736     -46.89795     -16.73435     -15.64347
     3  C(13)              0.02352      26.43806       9.43376       8.81879
     4  C(13)             -0.02080     -23.37801      -8.34185      -7.79806
     5  C(13)              0.02754      30.96314      11.04842      10.32819
     6  C(13)              0.00570       6.40488       2.28542       2.13644
     7  C(13)              0.00581       6.52995       2.33005       2.17816
     8  H(1)              -0.00616     -27.51653      -9.81858      -9.17853
     9  H(1)              -0.00332     -14.82558      -5.29013      -4.94528
    10  H(1)              -0.01107     -49.48809     -17.65858     -16.50745
    11  H(1)              -0.00106      -4.72034      -1.68434      -1.57454
    12  H(1)              -0.00094      -4.19079      -1.49538      -1.39790
    13  H(1)              -0.00185      -8.28280      -2.95551      -2.76285
    14  H(1)              -0.00172      -7.69338      -2.74519      -2.56623
    15  H(1)              -0.00024      -1.05904      -0.37789      -0.35326
    16  H(1)              -0.00163      -7.27442      -2.59569      -2.42649
    17  H(1)              -0.00018      -0.80469      -0.28713      -0.26841
    18  H(1)              -0.00174      -7.79335      -2.78086      -2.59958
 --------------------------------------------------------
       Center         ----  Spin Dipole Couplings  ----
                      3XX-RR        3YY-RR        3ZZ-RR
 --------------------------------------------------------
     1   Atom       -1.671141      1.956288     -0.285147
     2   Atom       -0.565040      0.553947      0.011093
     3   Atom       -0.007293      0.015125     -0.007832
     4   Atom       -0.012187      0.029610     -0.017423
     5   Atom        0.032214     -0.020227     -0.011987
     6   Atom        0.000973     -0.000335     -0.000638
     7   Atom        0.002784     -0.000687     -0.002098
     8   Atom        0.012630     -0.011451     -0.001179
     9   Atom       -0.002516      0.000867      0.001649
    10   Atom        0.099644     -0.054949     -0.044695
    11   Atom       -0.001318     -0.005510      0.006828
    12   Atom        0.000748      0.005008     -0.005756
    13   Atom        0.001827     -0.001284     -0.000543
    14   Atom        0.002777     -0.001935     -0.000842
    15   Atom        0.001672     -0.000951     -0.000722
    16   Atom        0.001741     -0.001511     -0.000229
    17   Atom        0.001120     -0.000812     -0.000308
    18   Atom        0.002397     -0.001477     -0.000921
 --------------------------------------------------------
                        XY            XZ            YZ
 --------------------------------------------------------
     1   Atom        0.363048      0.197356      2.293537
     2   Atom       -0.083078      0.060120      0.629489
     3   Atom       -0.043265     -0.043765      0.052938
     4   Atom        0.023968      0.061836     -0.024132
     5   Atom       -0.044519     -0.047183      0.024866
     6   Atom       -0.001458      0.001193     -0.002187
     7   Atom        0.002554      0.000421      0.000535
     8   Atom       -0.024794      0.028673     -0.016864
     9   Atom        0.000778     -0.006572     -0.005352
    10   Atom       -0.025250     -0.062666      0.018253
    11   Atom       -0.002607     -0.004386      0.006458
    12   Atom       -0.008228     -0.002870     -0.001164
    13   Atom       -0.001551      0.000271      0.000069
    14   Atom       -0.002427      0.001654     -0.000522
    15   Atom        0.000028      0.000658      0.000475
    16   Atom        0.000340     -0.000244      0.000178
    17   Atom       -0.000368      0.000403     -0.000479
    18   Atom        0.001157      0.000604      0.000555
 --------------------------------------------------------


 ---------------------------------------------------------------------------------
              Anisotropic Spin Dipole Couplings in Principal Axis System
 ---------------------------------------------------------------------------------

       Atom             a.u.   MegaHertz   Gauss  10(-4) cm-1        Axes

              Baa    -1.7364   125.646    44.834    41.911  0.6120 -0.4598  0.6435
     1 O(17)  Bbb    -1.6853   121.945    43.513    40.676  0.7868  0.2709 -0.5546
              Bcc     3.4217  -247.591   -88.347   -82.587  0.0807  0.8457  0.5275
 
              Baa    -0.6102    44.157    15.756    14.729  0.9074  0.2482 -0.3392
     2 O(17)  Bbb    -0.3587    25.952     9.260     8.657  0.4197 -0.4892  0.7646
              Bcc     0.9689   -70.109   -25.017   -23.386 -0.0238  0.8361  0.5480
 
              Baa    -0.0541    -7.258    -2.590    -2.421  0.4450 -0.3517  0.8236
     3 C(13)  Bbb    -0.0405    -5.439    -1.941    -1.814  0.7322  0.6724 -0.1085
              Bcc     0.0946    12.698     4.531     4.236 -0.5156  0.6513  0.5568
 
              Baa    -0.0866   -11.627    -4.149    -3.878 -0.6651  0.2808  0.6920
     4 C(13)  Bbb     0.0395     5.302     1.892     1.769  0.1388  0.9570 -0.2549
              Bcc     0.0471     6.325     2.257     2.110  0.7338  0.0735  0.6754
 
              Baa    -0.0462    -6.195    -2.210    -2.066  0.5895  0.7659  0.2566
     5 C(13)  Bbb    -0.0403    -5.415    -1.932    -1.806  0.2541 -0.4774  0.8412
              Bcc     0.0865    11.609     4.142     3.872  0.7668 -0.4307 -0.4760
 
              Baa    -0.0027    -0.360    -0.129    -0.120  0.0428  0.6948  0.7179
     6 C(13)  Bbb    -0.0006    -0.077    -0.027    -0.026  0.7705  0.4345 -0.4664
              Bcc     0.0033     0.437     0.156     0.146  0.6360 -0.5731  0.5168
 
              Baa    -0.0024    -0.319    -0.114    -0.107  0.2281 -0.5890  0.7753
     7 C(13)  Bbb    -0.0018    -0.244    -0.087    -0.081 -0.4221  0.6577  0.6239
              Bcc     0.0042     0.563     0.201     0.188  0.8774  0.4695  0.0986
 
              Baa    -0.0271   -14.468    -5.163    -4.826  0.6001  0.7852 -0.1528
     8 H(1)   Bbb    -0.0227   -12.121    -4.325    -4.043 -0.3618  0.4367  0.8236
              Bcc     0.0498    26.589     9.487     8.869  0.7135 -0.4389  0.5461
 
              Baa    -0.0082    -4.367    -1.558    -1.457  0.6988  0.3186  0.6405
     9 H(1)   Bbb    -0.0011    -0.594    -0.212    -0.198 -0.5610  0.7996  0.2144
              Bcc     0.0093     4.961     1.770     1.655 -0.4438 -0.5091  0.7375
 
              Baa    -0.0731   -39.020   -13.923   -13.016  0.2237 -0.5181  0.8256
    10 H(1)   Bbb    -0.0549   -29.273   -10.445    -9.764  0.3162  0.8398  0.4413
              Bcc     0.1280    68.293    24.369    22.780  0.9219 -0.1623 -0.3517
 
              Baa    -0.0084    -4.456    -1.590    -1.486  0.1189  0.9256 -0.3594
    11 H(1)   Bbb    -0.0032    -1.721    -0.614    -0.574  0.9231  0.0303  0.3833
              Bcc     0.0116     6.177     2.204     2.060 -0.3657  0.3774  0.8508
 
              Baa    -0.0087    -4.636    -1.654    -1.546  0.5692  0.4028  0.7168
    12 H(1)   Bbb    -0.0027    -1.456    -0.520    -0.486 -0.5420 -0.4717  0.6955
              Bcc     0.0114     6.093     2.174     2.032 -0.6183  0.7844  0.0501
 
              Baa    -0.0019    -1.038    -0.370    -0.346  0.3849  0.9152 -0.1193
    13 H(1)   Bbb    -0.0005    -0.288    -0.103    -0.096 -0.0227  0.1386  0.9901
              Bcc     0.0025     1.326     0.473     0.442  0.9227 -0.3783  0.0741
 
              Baa    -0.0030    -1.588    -0.567    -0.530  0.4101  0.9070 -0.0960
    14 H(1)   Bbb    -0.0014    -0.746    -0.266    -0.249 -0.2503  0.2132  0.9444
              Bcc     0.0044     2.334     0.833     0.779  0.8770 -0.3633  0.3145
 
              Baa    -0.0014    -0.735    -0.262    -0.245  0.1372  0.7321 -0.6673
    15 H(1)   Bbb    -0.0005    -0.251    -0.090    -0.084 -0.2235  0.6791  0.6991
              Bcc     0.0018     0.987     0.352     0.329  0.9650  0.0532  0.2568
 
              Baa    -0.0016    -0.841    -0.300    -0.281 -0.1117  0.9823 -0.1502
    16 H(1)   Bbb    -0.0002    -0.119    -0.043    -0.040  0.0940  0.1609  0.9825
              Bcc     0.0018     0.961     0.343     0.320  0.9893  0.0956 -0.1103
 
              Baa    -0.0011    -0.591    -0.211    -0.197  0.0543  0.8682  0.4933
    17 H(1)   Bbb    -0.0002    -0.122    -0.044    -0.041 -0.3653 -0.4425  0.8190
              Bcc     0.0013     0.713     0.254     0.238  0.9293 -0.2247  0.2931
 
              Baa    -0.0019    -1.040    -0.371    -0.347 -0.1887  0.9064 -0.3780
    18 H(1)   Bbb    -0.0009    -0.485    -0.173    -0.162 -0.2774  0.3200  0.9059
              Bcc     0.0029     1.525     0.544     0.509  0.9420  0.2758  0.1911
 

 ---------------------------------------------------------------------------------

 No NMR shielding tensors so no spin-rotation constants.
 Leave Link  601 at Tue May  1 13:25:00 2018, MaxMem=  671088640 cpu:      31.5
 (Enter /shared/apps/gaussian/G09_LINUX_LINDA/g09/l701.exe)
 Compute integral first derivatives.
 ... and contract with generalized density number  0.
 Leave Link  701 at Tue May  1 13:25:01 2018, MaxMem=  671088640 cpu:      12.3
 (Enter /shared/apps/gaussian/G09_LINUX_LINDA/g09/l702.exe)
 L702 exits ... SP integral derivatives will be done elsewhere.
 Leave Link  702 at Tue May  1 13:25:02 2018, MaxMem=  671088640 cpu:       0.2
 (Enter /shared/apps/gaussian/G09_LINUX_LINDA/g09/l703.exe)
 Compute integral first derivatives, UseDBF=F ICtDFT=           0.
 Integral derivatives from FoFDir, PRISM(SPDF).
 Calling FoFJK, ICntrl=      2127 FMM=F ISym2X=0 I1Cent= 0 IOpClX= 1 NMat=1 NMatS=1 NMatT=0.
 FoFCou: FMM=F IPFlag=           0 FMFlag=      100000 FMFlg1=         800
         NFxFlg=           0 DoJE=F BraDBF=F KetDBF=F FulRan=T
         Omega=  0.000000  0.000000  1.000000  0.000000  0.000000 ICntrl=    2127 IOpCl=  1
         NMat0=    1 NMatS0=    1 NMatT0=    0 NMatD0=    1 NMtDS0=    0 NMtDT0=    0
         I1Cent=           0 NGrid=           0.
 Symmetry not used in FoFCou.
 Leave Link  703 at Tue May  1 13:25:05 2018, MaxMem=  671088640 cpu:      18.4
 (Enter /shared/apps/gaussian/G09_LINUX_LINDA/g09/l716.exe)
 Dipole        = 9.82105897D-01-4.64193146D-01 3.05439197D-01
 ***** Axes restored to original set *****
 -------------------------------------------------------------------
[...]
    15  H   -0.002089   0.000000  -0.000107   0.000093  -0.000008  -0.000117
    16  H    0.394832   0.000000   0.003066  -0.000003  -0.000008   0.000005
    17  H    0.389354   0.000000   0.000112  -0.000003   0.000005   0.000007
    18  H    0.388471   0.000000   0.000148   0.000015  -0.000001  -0.000005
             13         14         15         16         17         18
     1  O    0.000000   0.000134  -0.000005   0.000000   0.000000   0.000000
     2  O    0.000000  -0.000009   0.000000   0.000000   0.000000   0.000000
     3  C    0.000194  -0.003165   0.000530  -0.001035  -0.000363   0.000199
     4  C   -0.041742  -0.034955  -0.041116  -0.040804  -0.042330  -0.041636
     5  C    0.000176  -0.000633   0.000248   0.000148  -0.000097  -0.000077
     6  C    0.388476   0.395466   0.391466   0.003651  -0.000934  -0.001366
     7  C   -0.001718   0.003579  -0.002089   0.394832   0.389354   0.388471
     8  H    0.000000   0.000001   0.000000   0.000000   0.000000   0.000000
     9  H   -0.000112   0.000038  -0.000107   0.003066   0.000112   0.000148
    10  H   -0.000029  -0.000164   0.000093  -0.000003  -0.000003   0.000015
    11  H    0.000008   0.000070  -0.000008  -0.000008   0.000005  -0.000001
    12  H    0.000080   0.000557  -0.000117   0.000005   0.000007  -0.000005
    13  H    0.540654  -0.025003  -0.033092  -0.000059   0.002570  -0.000365
    14  H   -0.025003   0.505350  -0.024946  -0.000091  -0.000041  -0.000063
    15  H   -0.033092  -0.024946   0.530606  -0.000031  -0.000390   0.002649
    16  H   -0.000059  -0.000091  -0.000031   0.516740  -0.024916  -0.024635
    17  H    0.002570  -0.000041  -0.000390  -0.024916   0.542689  -0.034511
    18  H   -0.000365  -0.000063   0.002649  -0.024635  -0.034511   0.539553
 Mulliken atomic charges:
              1
     1  O   -0.315233
     2  O   -0.444895
     3  C   -0.190028
     4  C    0.074797
     5  C   -0.510045
     6  C   -0.516612
     7  C   -0.510551
     8  H    0.455855
     9  H    0.180881
    10  H    0.330251
    11  H    0.190858
    12  H    0.210962
    13  H    0.169962
    14  H    0.183874
    15  H    0.176311
    16  H    0.173142
    17  H    0.168848
    18  H    0.171624
 Sum of Mulliken atomic charges =   0.00000
 Mulliken charges with hydrogens summed into heavy atoms:
              1
     1  O    0.015017
     2  O    0.010960
     3  C   -0.009147
     4  C    0.074797
     5  C   -0.108226
     6  C    0.013535
     7  C    0.003063
 Sum of Mulliken charges with hydrogens summed into heavy atoms =   0.00000
          Atomic-Atomic Spin Densities.
              1          2          3          4          5          6
     1  O    0.782409  -0.049849   0.004003   0.000277  -0.070352  -0.000017
     2  O   -0.049849   0.016017  -0.000224  -0.000004   0.007147   0.000001
     3  C    0.004003  -0.000224  -0.726967   0.034834  -0.037079  -0.000200
     4  C    0.000277  -0.000004   0.034834   0.833861  -0.013279  -0.027856
     5  C   -0.070352   0.007147  -0.037079  -0.013279   0.788398   0.000382
     6  C   -0.000017   0.000001  -0.000200  -0.027856   0.000382  -0.086231
     7  C    0.000001   0.000000  -0.000637  -0.023832   0.000012   0.002251
     8  H    0.000062  -0.000314  -0.000001   0.000000  -0.000023   0.000000
     9  H   -0.000034   0.000001   0.007162  -0.002115  -0.001478   0.000040
    10  H   -0.077827   0.018822   0.015870   0.000165   0.066907  -0.000027
    11  H    0.003321  -0.000906   0.004649  -0.000113  -0.022018  -0.000023
    12  H    0.003348  -0.001276   0.004140  -0.000531  -0.020919   0.000310
    13  H    0.000001   0.000000  -0.000033  -0.012362   0.000101   0.007056
    14  H    0.000001   0.000001   0.000872  -0.002128  -0.000486   0.003445
    15  H   -0.000008   0.000000   0.000030  -0.011793   0.000155   0.007863
    16  H    0.000000   0.000000   0.000970  -0.002228  -0.000003  -0.000063
    17  H    0.000000   0.000000  -0.000176  -0.012685   0.000021   0.000450
    18  H    0.000000   0.000000   0.000194  -0.013346   0.000027   0.000621
              7          8          9         10         11         12
     1  O    0.000001   0.000062  -0.000034  -0.077827   0.003321   0.003348
     2  O    0.000000  -0.000314   0.000001   0.018822  -0.000906  -0.001276
     3  C   -0.000637  -0.000001   0.007162   0.015870   0.004649   0.004140
     4  C   -0.023832   0.000000  -0.002115   0.000165  -0.000113  -0.000531
     5  C    0.000012  -0.000023  -0.001478   0.066907  -0.022018  -0.020919
     6  C    0.002251   0.000000   0.000040  -0.000027  -0.000023   0.000310
     7  C   -0.092499   0.000000   0.000184   0.000018   0.000009   0.000004
     8  H    0.000000  -0.001255   0.000000   0.000212  -0.000033  -0.000005
     9  H    0.000184   0.000000   0.042201  -0.000285  -0.000194  -0.000042
    10  H    0.000018   0.000212  -0.000285  -0.256207   0.009574   0.010675
    11  H    0.000009  -0.000033  -0.000194   0.009574  -0.039593   0.002118
    12  H    0.000004  -0.000005  -0.000042   0.010675   0.002118  -0.041992
    13  H    0.000602   0.000000  -0.000011   0.000007   0.000004   0.000022
    14  H   -0.000075   0.000000   0.000004  -0.000032   0.000014   0.000163
    15  H    0.000356   0.000000   0.000004  -0.000024  -0.000002  -0.000027
    16  H    0.003546   0.000000  -0.000075   0.000001   0.000001   0.000000
    17  H    0.007844   0.000000  -0.000039   0.000001   0.000001   0.000001
    18  H    0.006783   0.000000   0.000052  -0.000005  -0.000001  -0.000001
             13         14         15         16         17         18
     1  O    0.000001   0.000001  -0.000008   0.000000   0.000000   0.000000
     2  O    0.000000   0.000001   0.000000   0.000000   0.000000   0.000000
     3  C   -0.000033   0.000872   0.000030   0.000970  -0.000176   0.000194
     4  C   -0.012362  -0.002128  -0.011793  -0.002228  -0.012685  -0.013346
     5  C    0.000101  -0.000486   0.000155  -0.000003   0.000021   0.000027
     6  C    0.007056   0.003445   0.007863  -0.000063   0.000450   0.000621
     7  C    0.000602  -0.000075   0.000356   0.003546   0.007844   0.006783
     8  H    0.000000   0.000000   0.000000   0.000000   0.000000   0.000000
     9  H   -0.000011   0.000004   0.000004  -0.000075  -0.000039   0.000052
    10  H    0.000007  -0.000032  -0.000024   0.000001   0.000001  -0.000005
    11  H    0.000004   0.000014  -0.000002   0.000001   0.000001  -0.000001
    12  H    0.000022   0.000163  -0.000027   0.000000   0.000001  -0.000001
    13  H    0.035918  -0.000712  -0.007018  -0.000001   0.001590  -0.000626
    14  H   -0.000712   0.003493  -0.000643   0.000000   0.000001  -0.000003
    15  H   -0.007018  -0.000643   0.032736  -0.000003  -0.000645   0.001664
    16  H   -0.000001   0.000000  -0.000003   0.003329  -0.000619  -0.000793
    17  H    0.001590   0.000001  -0.000645  -0.000619   0.036688  -0.008187
    18  H   -0.000626  -0.000003   0.001664  -0.000793  -0.008187   0.040456
 Mulliken atomic spin densities:
              1
     1  O    0.595334
     2  O   -0.010585
     3  C   -0.692595
     4  C    0.746866
     5  C    0.697512
     6  C   -0.091996
     7  C   -0.095434
     8  H   -0.001356
     9  H    0.045375
    10  H   -0.212157
    11  H   -0.043193
    12  H   -0.044012
    13  H    0.024539
    14  H    0.003916
    15  H    0.022645
    16  H    0.004059
    17  H    0.024245
    18  H    0.026834
 Sum of Mulliken atomic spin densities =   1.00000
 Electronic spatial extent (au):  <R**2>=           1352.2978
 Charge=              0.0000 electrons
 Dipole moment (field-independent basis, Debye):
    X=              0.9244    Y=             -1.5734    Z=             -1.1932  Tot=              2.1803
 Quadrupole moment (field-independent basis, Debye-Ang):
   XX=            -39.6369   YY=            -43.1019   ZZ=            -46.2712
   XY=              6.5997   XZ=              3.8062   YZ=             -0.0202
 Traceless Quadrupole moment (field-independent basis, Debye-Ang):
   XX=              3.3665   YY=             -0.0986   ZZ=             -3.2679
   XY=              6.5997   XZ=              3.8062   YZ=             -0.0202
 Octapole moment (field-independent basis, Debye-Ang**2):
  XXX=            -52.1436  YYY=             -2.7177  ZZZ=              3.1524  XYY=             -7.4105
  XXY=            -20.6526  XXZ=             -5.2371  XZZ=             -6.6977  YZZ=              2.0541
  YYZ=              0.6284  XYZ=             -1.7002
 Hexadecapole moment (field-independent basis, Debye-Ang**3):
 XXXX=          -1126.3646 YYYY=           -239.5465 ZZZZ=           -143.0272 XXXY=             84.9887
 XXXZ=              9.5814 YYYX=             -3.3580 YYYZ=              0.7537 ZZZX=             -1.2350
 ZZZY=              0.0180 XXYY=           -258.7324 XXZZ=           -247.9158 YYZZ=            -63.6109
 XXYZ=              0.7118 YYXZ=              1.4432 ZZXY=              2.6065
 N-N= 2.950942928527D+02 E-N=-2.091027368059D+03  KE= 5.157686763120D+02
                          Isotropic Fermi Contact Couplings
        Atom                 a.u.       MegaHertz       Gauss      10(-4) cm-1
     1  O(17)              0.12168     -73.75949     -26.31922     -24.60352
     2  O(17)              0.02183     -13.23347      -4.72203      -4.41421
     3  C(13)             -0.12467    -140.15723     -50.01158     -46.75142
     4  C(13)              0.13258     149.03970      53.18107      49.71429
     5  C(13)              0.16921     190.21939      67.87501      63.45036
     6  C(13)             -0.03030     -34.06388     -12.15484     -11.36249
     7  C(13)             -0.03170     -35.63470     -12.71535     -11.88646
     8  H(1)              -0.00075      -3.34441      -1.19337      -1.11558
     9  H(1)               0.01398      62.48569      22.29645      20.84298
    10  H(1)              -0.08544    -381.91037    -136.27511    -127.39159
    11  H(1)              -0.01427     -63.77424     -22.75623     -21.27280
    12  H(1)              -0.01486     -66.41884     -23.69989     -22.15494
    13  H(1)               0.01098      49.07331      17.51057      16.36909
    14  H(1)               0.00133       5.94095       2.11988       1.98169
    15  H(1)               0.01018      45.52417      16.24415      15.18523
    16  H(1)               0.00138       6.16831       2.20101       2.05753
    17  H(1)               0.01083      48.39900      17.26997      16.14417
    18  H(1)               0.01186      52.99256      18.90906      17.67642
 --------------------------------------------------------
       Center         ----  Spin Dipole Couplings  ----
                      3XX-RR        3YY-RR        3ZZ-RR
 --------------------------------------------------------
     1   Atom        0.205014     -0.944848      0.739834
     2   Atom        0.094380     -0.020892     -0.073488
     3   Atom        0.169373      0.214628     -0.384001
     4   Atom       -0.182456     -0.292799      0.475255
     5   Atom       -0.012034     -0.274607      0.286641
     6   Atom        0.006242     -0.008510      0.002268
     7   Atom       -0.006505      0.005103      0.001402
     8   Atom        0.014074     -0.008758     -0.005316
     9   Atom        0.028873     -0.024419     -0.004454
    10   Atom        0.065237     -0.103477      0.038239
    11   Atom       -0.014525      0.018573     -0.004048
    12   Atom       -0.025692      0.021466      0.004226
    13   Atom       -0.003128      0.006584     -0.003457
    14   Atom       -0.001249      0.004362     -0.003113
    15   Atom       -0.001621      0.007721     -0.006100
    16   Atom        0.000273      0.000610     -0.000883
    17   Atom        0.007730     -0.003428     -0.004302
    18   Atom        0.005382     -0.004176     -0.001205
 --------------------------------------------------------
                        XY            XZ            YZ
 --------------------------------------------------------
     1   Atom       -0.662960     -1.605344      0.710428
     2   Atom       -0.058364     -0.276173      0.151327
     3   Atom        0.042731      0.241059     -0.083227
     4   Atom       -0.049281     -0.297693      0.098807
     5   Atom       -0.080137     -0.414379      0.123964
     6   Atom       -0.001562      0.000616      0.000363
     7   Atom       -0.001362     -0.004179     -0.000956
     8   Atom        0.006418      0.009954      0.007113
     9   Atom        0.015199      0.008923      0.011145
    10   Atom       -0.068831     -0.177307      0.062740
    11   Atom        0.028199     -0.003636      0.030974
    12   Atom       -0.009594     -0.011182     -0.029155
    13   Atom        0.002164      0.000536     -0.003418
    14   Atom       -0.000387     -0.000846     -0.002475
    15   Atom        0.001026     -0.000242      0.000978
    16   Atom       -0.005909      0.000883     -0.002467
    17   Atom       -0.003057      0.002868      0.000514
    18   Atom       -0.001576      0.005532     -0.002445
 --------------------------------------------------------


 ---------------------------------------------------------------------------------
              Anisotropic Spin Dipole Couplings in Principal Axis System
 ---------------------------------------------------------------------------------

       Atom             a.u.   MegaHertz   Gauss  10(-4) cm-1        Axes

              Baa    -1.2492    90.391    32.254    30.151  0.4901  0.8674  0.0857
     1 O(17)  Bbb    -1.1338    82.042    29.275    27.366  0.6093 -0.4112  0.6780
              Bcc     2.3830  -172.434   -61.529   -57.518 -0.6234  0.2800  0.7301
 
              Baa    -0.3077    22.262     7.944     7.426  0.5043 -0.3205  0.8019
     2 O(17)  Bbb    -0.0435     3.151     1.124     1.051  0.4755  0.8782  0.0519
              Bcc     0.3512   -25.413    -9.068    -8.477  0.7208 -0.3551 -0.5953
 
              Baa    -0.4866   -65.297   -23.300   -21.781 -0.3495  0.1314  0.9277
     3 C(13)  Bbb     0.2237    30.023    10.713    10.015 -0.2238  0.9498 -0.2188
              Bcc     0.2629    35.274    12.587    11.766  0.9098  0.2840  0.3025
 
              Baa    -0.3131   -42.010   -14.990   -14.013  0.5468  0.8310  0.1024
     4 C(13)  Bbb    -0.2904   -38.970   -13.905   -12.999  0.7567 -0.5429  0.3643
              Bcc     0.6035    80.979    28.895    27.012 -0.3583  0.1217  0.9257
 
              Baa    -0.3072   -41.224   -14.710   -13.751  0.6088 -0.5763  0.5451
     5 C(13)  Bbb    -0.2954   -39.636   -14.143   -13.221  0.5558  0.8002  0.2253
              Bcc     0.6026    80.860    28.853    26.972 -0.5661  0.1658  0.8075
 
              Baa    -0.0087    -1.166    -0.416    -0.389  0.1056  0.9937 -0.0389
     6 C(13)  Bbb     0.0022     0.296     0.106     0.099 -0.1307  0.0526  0.9900
              Bcc     0.0065     0.870     0.310     0.290  0.9858 -0.0994  0.1354
 
              Baa    -0.0085    -1.141    -0.407    -0.380  0.9106  0.1190  0.3958
     7 C(13)  Bbb     0.0031     0.423     0.151     0.141 -0.4108  0.1535  0.8987
              Bcc     0.0054     0.718     0.256     0.240 -0.0462  0.9810 -0.1887
 
              Baa    -0.0144    -7.694    -2.745    -2.566  0.0582  0.7548 -0.6534
     8 H(1)   Bbb    -0.0064    -3.438    -1.227    -1.147 -0.4942  0.5905  0.6380
              Bcc     0.0209    11.132     3.972     3.713  0.8674  0.2858  0.4074
 
              Baa    -0.0313   -16.726    -5.968    -5.579 -0.1864  0.9280 -0.3227
     9 H(1)   Bbb    -0.0049    -2.607    -0.930    -0.870 -0.3492  0.2445  0.9046
              Bcc     0.0362    19.333     6.898     6.449  0.9183  0.2813  0.2785
 
              Baa    -0.1280   -68.313   -24.376   -22.787  0.4150  0.9042  0.1013
    10 H(1)   Bbb    -0.1258   -67.119   -23.950   -22.389  0.5688 -0.3447  0.7467
              Bcc     0.2538   135.433    48.326    45.176  0.7101 -0.2522 -0.6574
 
              Baa    -0.0422   -22.496    -8.027    -7.504  0.6429 -0.5632  0.5190
    11 H(1)   Bbb    -0.0058    -3.076    -1.097    -1.026 -0.6852 -0.1202  0.7183
              Bcc     0.0479    25.571     9.125     8.530  0.3422  0.8175  0.4632
 
              Baa    -0.0369   -19.680    -7.022    -6.564  0.7959  0.3702  0.4790
    12 H(1)   Bbb    -0.0064    -3.404    -1.215    -1.135 -0.6052  0.4667  0.6449
              Bcc     0.0433    23.084     8.237     7.700 -0.0152  0.8032 -0.5955
 
              Baa    -0.0052    -2.793    -0.997    -0.932 -0.5317  0.3237  0.7826
    13 H(1)   Bbb    -0.0027    -1.459    -0.521    -0.487  0.8294  0.0122  0.5585
              Bcc     0.0080     4.252     1.517     1.418  0.1712  0.9461 -0.2750
 
              Baa    -0.0042    -2.215    -0.790    -0.739  0.3029  0.2787  0.9113
    14 H(1)   Bbb    -0.0010    -0.511    -0.182    -0.171  0.9528 -0.0683 -0.2958
              Bcc     0.0051     2.726     0.973     0.909 -0.0202  0.9579 -0.2862
 
              Baa    -0.0062    -3.303    -1.179    -1.102  0.0695 -0.0751  0.9948
    15 H(1)   Bbb    -0.0017    -0.910    -0.325    -0.304  0.9920 -0.1000 -0.0769
              Bcc     0.0079     4.213     1.503     1.405  0.1052  0.9922  0.0675
 
              Baa    -0.0057    -3.062    -1.093    -1.021  0.6623  0.7097  0.2401
    16 H(1)   Bbb    -0.0013    -0.713    -0.255    -0.238 -0.3747  0.0363  0.9264
              Bcc     0.0071     3.775     1.347     1.259 -0.6488  0.7035 -0.2900
 
              Baa    -0.0057    -3.066    -1.094    -1.023 -0.2918 -0.5570  0.7775
    17 H(1)   Bbb    -0.0033    -1.759    -0.628    -0.587  0.0662  0.7992  0.5974
              Bcc     0.0090     4.825     1.722     1.609  0.9542 -0.2258  0.1963
 
              Baa    -0.0058    -3.121    -1.114    -1.041 -0.2125  0.7373  0.6413
    18 H(1)   Bbb    -0.0032    -1.700    -0.607    -0.567  0.4939  0.6473 -0.5805
              Bcc     0.0090     4.821     1.720     1.608  0.8432 -0.1934  0.5017
 

 ---------------------------------------------------------------------------------

 No NMR shielding tensors so no spin-rotation constants.
 Leave Link  601 at Tue May  1 13:50:28 2018, MaxMem=  671088640 cpu:      19.5
 (Enter /shared/apps/gaussian/G09_LINUX_LINDA/g09/l9999.exe)
 1\1\GINC-COMPUTE-3-046\FOpt\UHF\6-31G(d)\C5H11O2(2)\ROOT\01-May-2018\0
 \\#p hf/6-31g* Opt=(ModRedun,Loose) Int(Grid=SG1)\\Gaussian input prep
 ared by ASE\\0,2\O,-3.1690041608,0.1628850647,-0.7113732123\O,-3.89015
 63966,1.2966998068,-0.45071007\C,0.2222510274,0.3779393265,-1.08872641
 49\C,0.9237989454,-0.1479288472,-0.0498377322\C,-0.9156779109,1.283694
 1933,-1.0130725937\C,0.6439263565,0.1456237434,1.4018006115\C,2.068907
 9018,-1.0968747971,-0.2979367114\H,-4.2969764357,1.5002408467,-1.28479
 05925\H,0.498781523,0.060119745,-2.0807923823\H,-2.016605189,0.5786299
 806,-0.9162919918\H,-1.1086254384,1.8463589653,-1.9155887689\H,-1.0146
 805174,1.8927646273,-0.1287174077\H,1.5086742603,0.6099151716,1.870860
 0256\H,-0.2085446866,0.7933315764,1.5507185558\H,0.4513942528,-0.77910
 77058,1.9401548488\H,2.2328392811,-1.2673568177,-1.3554486263\H,2.9918
 040364,-0.7099255906,0.1284805917\H,1.882795651,-2.0589730037,0.174224
 9155\\Version=EM64L-G09RevB.01\State=2-A\HF=-345.2575082\S2=1.002503\S
 2-1=0.\S2A=0.776794\RMSD=8.245e-09\RMSF=5.062e-04\Dipole=0.575161,0.33
 02589,-0.5440034\Quadrupole=-0.9554873,-0.4992887,1.454776,-3.3629194,
 4.6305043,-1.9442161\PG=C01 [X(C5H11O2)]\\@


 THE MORE PROGRESS PHYSICAL SCIENCES MAKE, THE MORE THEY TEND TO ENTER
 THE DOMAIN OF MATHEMATICS, WHICH IS A KIND OF CENTRE TO WHICH THEY ALL
 CONVERGE.  WE MAY EVEN JUDGE THE DEGREE OF PERFECTION TO WHICH A 
 SCIENCE HAS ARRIVED BY THE FACILITY WITH WHICH IT MAY BE SUBMITTED
 TO CALCULATION.

                               -- ADOLPHE QUETELET, 1796-1874
 Job cpu time:  0 days  4 hours 18 minutes  2.0 seconds.
 File lengths (MBytes):  RWF=     47 Int=      0 D2E=      0 Chk=      3 Scr=      1
 Normal termination of Gaussian 09 at Tue May  1 13:50:28 2018.
