 Entering Gaussian System, Link 0=g09
 Initial command:
 /shared/apps/gaussian/G09_LINUX_LINDA/g09/l1.exe /home/harms.n/Code/AutoTST/ipython_notebooks/Gau-34326.inp -scrdir=/home/harms.n/Code/AutoTST/ipython_notebooks/
 Entering Link 1 = /shared/apps/gaussian/G09_LINUX_LINDA/g09/l1.exe PID=     34327.
  
 Copyright (c) 1988,1990,1992,1993,1995,1998,2003,2009,2010,
            Gaussian, Inc.  All Rights Reserved.
  
 This is part of the Gaussian(R) 09 program.  It is based on
 the Gaussian(R) 03 system (copyright 2003, Gaussian, Inc.),
 the Gaussian(R) 98 system (copyright 1998, Gaussian, Inc.),
 the Gaussian(R) 94 system (copyright 1995, Gaussian, Inc.),
 the Gaussian 92(TM) system (copyright 1992, Gaussian, Inc.),
 the Gaussian 90(TM) system (copyright 1990, Gaussian, Inc.),
 the Gaussian 88(TM) system (copyright 1988, Gaussian, Inc.),
 the Gaussian 86(TM) system (copyright 1986, Carnegie Mellon
 University), and the Gaussian 82(TM) system (copyright 1983,
 Carnegie Mellon University). Gaussian is a federally registered
 trademark of Gaussian, Inc.
  
 This software contains proprietary and confidential information,
 including trade secrets, belonging to Gaussian, Inc.
  
 This software is provided under written license and may be
 used, copied, transmitted, or stored only in accord with that
 written license.
  
 The following legend is applicable only to US Government
 contracts under FAR:
  
                    RESTRICTED RIGHTS LEGEND
  
 Use, reproduction and disclosure by the US Government is
 subject to restrictions as set forth in subparagraphs (a)
 and (c) of the Commercial Computer Software - Restricted
 Rights clause in FAR 52.227-19.
  
 Gaussian, Inc.
 340 Quinnipiac St., Bldg. 40, Wallingford CT 06492
  
  
 ---------------------------------------------------------------
 Warning -- This program may not be used in any manner that
 competes with the business of Gaussian, Inc. or will provide
 assistance to any competitor of Gaussian, Inc.  The licensee
 of this program is prohibited from giving any competitor of
 Gaussian, Inc. access to this program.  By using this program,
 the user acknowledges that Gaussian, Inc. is engaged in the
 business of creating and licensing software in the field of
 computational chemistry and represents and warrants to the
 licensee that it is not a competitor of Gaussian, Inc. and that
 it will not use this program in any manner prohibited above.
 ---------------------------------------------------------------
  

 Cite this work as:
 Gaussian 09, Revision B.01,
 M. J. Frisch, G. W. Trucks, H. B. Schlegel, G. E. Scuseria, 
 M. A. Robb, J. R. Cheeseman, G. Scalmani, V. Barone, B. Mennucci, 
 G. A. Petersson, H. Nakatsuji, M. Caricato, X. Li, H. P. Hratchian, 
 A. F. Izmaylov, J. Bloino, G. Zheng, J. L. Sonnenberg, M. Hada, 
 M. Ehara, K. Toyota, R. Fukuda, J. Hasegawa, M. Ishida, T. Nakajima, 
 Y. Honda, O. Kitao, H. Nakai, T. Vreven, J. A. Montgomery, Jr., 
 J. E. Peralta, F. Ogliaro, M. Bearpark, J. J. Heyd, E. Brothers, 
 K. N. Kudin, V. N. Staroverov, T. Keith, R. Kobayashi, J. Normand, 
 K. Raghavachari, A. Rendell, J. C. Burant, S. S. Iyengar, J. Tomasi, 
 M. Cossi, N. Rega, J. M. Millam, M. Klene, J. E. Knox, J. B. Cross, 
 V. Bakken, C. Adamo, J. Jaramillo, R. Gomperts, R. E. Stratmann, 
 O. Yazyev, A. J. Austin, R. Cammi, C. Pomelli, J. W. Ochterski, 
 R. L. Martin, K. Morokuma, V. G. Zakrzewski, G. A. Voth, 
 P. Salvador, J. J. Dannenberg, S. Dapprich, A. D. Daniels, 
 O. Farkas, J. B. Foresman, J. V. Ortiz, J. Cioslowski, 
 and D. J. Fox, Gaussian, Inc., Wallingford CT, 2010.
 
 ******************************************
 Gaussian 09:  EM64L-G09RevB.01 12-Aug-2010
                26-Apr-2018 
 ******************************************
 %nprocshared=20
 Will use up to   20 processors via shared memory.
 %mem=5GB
 -------------------------------------------------
 #p hf/6-31g* opt=(ts,calcfc,noeigentest,ModRedun)
 -------------------------------------------------
 1/5=1,10=4,11=1,18=120,38=1/1,3;
 2/9=110,12=2,17=6,18=5,40=1/2;
 3/5=1,6=6,7=1,11=9,16=1,25=1,30=1,71=2/1,2,3;
 4//1;
 5/5=2,38=5/2;
 8/6=4,10=90,11=11/1;
 11/6=1,8=1,9=11,15=111,16=1/1,2,10;
 10/6=1,7=6,13=1/2;
 6/7=2,8=2,9=2,10=2,28=1/1;
 7/10=1,18=20,25=1/1,2,3,16;
 1/5=1,10=4,11=1,18=20/3(2);
 2/9=110/2;
 99//99;
 2/9=110/2;
 3/5=1,6=6,7=1,11=9,16=1,25=1,30=1,71=1/1,2,3;
 4/5=5,16=3/1;
 5/5=2,38=5/2;
 7//1,2,3,16;
 1/5=1,11=1,18=20/3(-5);
 2/9=110/2;
 6/7=2,8=2,9=2,10=2,19=2,28=1/1;
 99/9=1/99;
 Leave Link    1 at Thu Apr 26 16:14:15 2018, MaxMem=  671088640 cpu:       1.8
 (Enter /shared/apps/gaussian/G09_LINUX_LINDA/g09/l101.exe)
 ------------------------------
 Gaussian input prepared by ASE
 ------------------------------
 Symbolic Z-matrix:
 Charge =  0 Multiplicity = 2
 O                    -3.16771   0.17263  -0.74767 
 O                    -3.88615   1.3156   -0.52224 
 C                     0.22942   0.36629  -1.08971 
 C                     0.91737  -0.13296  -0.02887 
 C                    -0.90657   1.27701  -1.05181 
 C                     2.06304  -1.09057  -0.23764 
 C                     0.62183   0.20117   1.41089 
 H                    -4.28178   1.50178  -1.36574 
 H                     0.51643   0.02097  -2.06953 
 H                    -2.01069   0.57806  -0.94729 
 H                    -1.0878    1.81482  -1.97177 
 H                    -1.01306   1.9109   -0.18592 
 H                     1.86912  -2.03916   0.25809 
 H                     2.23908  -1.28985  -1.28818 
 H                     2.98178  -0.69408   0.1891 
 H                    -0.2335    0.85086   1.53232 
 H                     0.42548  -0.7083    1.97334 
 H                     1.48075   0.68056   1.87549 
 
 NAtoms=     18 NQM=     18 NQMF=      0 NMic=      0 NMicF=      0 NTot=     18.
 The following ModRedundant input section has been read:
 B       2       3 F                                                           
 B       2       4 F                                                           
 B       2       6 F                                                           
 B       2       7 F                                                           
 B       2       8 F                                                           
 B       2       9 F                                                           
 B       2      11 F                                                           
 B       2      12 F                                                           
 B       2      13 F                                                           
 B       2      14 F                                                           
 B       2      15 F                                                           
 B       2      16 F                                                           
 B       2      17 F                                                           
 B       2      18 F                                                           
 B       3       4 F                                                           
 B       3       6 F                                                           
 B       3       7 F                                                           
 B       3       8 F                                                           
 B       3       9 F                                                           
 B       3      11 F                                                           
 B       3      12 F                                                           
 B       3      13 F                                                           
 B       3      14 F                                                           
 B       3      15 F                                                           
 B       3      16 F                                                           
 B       3      17 F                                                           
 B       3      18 F                                                           
 B       4       6 F                                                           
 B       4       7 F                                                           
 B       4       8 F                                                           
 B       4       9 F                                                           
 B       4      11 F                                                           
 B       4      12 F                                                           
 B       4      13 F                                                           
 B       4      14 F                                                           
 B       4      15 F                                                           
 B       4      16 F                                                           
 B       4      17 F                                                           
 B       4      18 F                                                           
 B       6       7 F                                                           
 B       6       8 F                                                           
 B       6       9 F                                                           
 B       6      11 F                                                           
 B       6      12 F                                                           
 B       6      13 F                                                           
 B       6      14 F                                                           
 B       6      15 F                                                           
 B       6      16 F                                                           
 B       6      17 F                                                           
 B       6      18 F                                                           
 B       7       8 F                                                           
 B       7       9 F                                                           
 B       7      11 F                                                           
 B       7      12 F                                                           
 B       7      13 F                                                           
 B       7      14 F                                                           
 B       7      15 F                                                           
 B       7      16 F                                                           
 B       7      17 F                                                           
 B       7      18 F                                                           
 B       8       9 F                                                           
 B       8      11 F                                                           
 B       8      12 F                                                           
 B       8      13 F                                                           
 B       8      14 F                                                           
 B       8      15 F                                                           
 B       8      16 F                                                           
 B       8      17 F                                                           
 B       8      18 F                                                           
 B       9      11 F                                                           
 B       9      12 F                                                           
 B       9      13 F                                                           
 B       9      14 F                                                           
 B       9      15 F                                                           
 B       9      16 F                                                           
 B       9      17 F                                                           
 B       9      18 F                                                           
 B      11      12 F                                                           
 B      11      13 F                                                           
 B      11      14 F                                                           
 B      11      15 F                                                           
 B      11      16 F                                                           
 B      11      17 F                                                           
 B      11      18 F                                                           
 B      12      13 F                                                           
 B      12      14 F                                                           
 B      12      15 F                                                           
 B      12      16 F                                                           
 B      12      17 F                                                           
 B      12      18 F                                                           
 B      13      14 F                                                           
 B      13      15 F                                                           
 B      13      16 F                                                           
 B      13      17 F                                                           
 B      13      18 F                                                           
 B      14      15 F                                                           
 B      14      16 F                                                           
 B      14      17 F                                                           
 B      14      18 F                                                           
 B      15      16 F                                                           
 B      15      17 F                                                           
 B      15      18 F                                                           
 B      16      17 F                                                           
 B      16      18 F                                                           
 B      17      18 F                                                           
                    Isotopes and Nuclear Properties:
 (Nuclear quadrupole moments (NQMom) in fm**2, nuclear magnetic moments (NMagM)
  in nuclear magnetons)

  Atom         1           2           3           4           5           6           7           8           9          10
 IAtWgt=          16          16          12          12          12          12          12           1           1           1
 AtmWgt=  15.9949146  15.9949146  12.0000000  12.0000000  12.0000000  12.0000000  12.0000000   1.0078250   1.0078250   1.0078250
 NucSpn=           0           0           0           0           0           0           0           1           1           1
 AtZEff=   0.0000000   0.0000000   0.0000000   0.0000000   0.0000000   0.0000000   0.0000000   0.0000000   0.0000000   0.0000000
 NQMom=    0.0000000   0.0000000   0.0000000   0.0000000   0.0000000   0.0000000   0.0000000   0.0000000   0.0000000   0.0000000
 NMagM=    0.0000000   0.0000000   0.0000000   0.0000000   0.0000000   0.0000000   0.0000000   2.7928460   2.7928460   2.7928460

  Atom        11          12          13          14          15          16          17          18
 IAtWgt=           1           1           1           1           1           1           1           1
 AtmWgt=   1.0078250   1.0078250   1.0078250   1.0078250   1.0078250   1.0078250   1.0078250   1.0078250
 NucSpn=           1           1           1           1           1           1           1           1
 AtZEff=   0.0000000   0.0000000   0.0000000   0.0000000   0.0000000   0.0000000   0.0000000   0.0000000
 NQMom=    0.0000000   0.0000000   0.0000000   0.0000000   0.0000000   0.0000000   0.0000000   0.0000000
 NMagM=    2.7928460   2.7928460   2.7928460   2.7928460   2.7928460   2.7928460   2.7928460   2.7928460
 Leave Link  101 at Thu Apr 26 16:14:15 2018, MaxMem=  671088640 cpu:       1.5
 (Enter /shared/apps/gaussian/G09_LINUX_LINDA/g09/l103.exe)

 GradGradGradGradGradGradGradGradGradGradGradGradGradGradGradGradGradGrad
 Berny optimization.
 Initialization pass.
                           ----------------------------
                           !    Initial Parameters    !
                           ! (Angstroms and Degrees)  !
 --------------------------                            --------------------------
 ! Name  Definition              Value          Derivative Info.                !
 --------------------------------------------------------------------------------
 ! R1    R(1,2)                  1.3687         calculate D2E/DX2 analytically  !
 ! R2    R(1,10)                 1.2421         calculate D2E/DX2 analytically  !
 ! R3    R(2,3)                  4.2616         frozen, calculate D2E/DX2 analyt!
 ! R4    R(2,4)                  5.0414         frozen, calculate D2E/DX2 analyt!
 ! R5    R(2,6)                  6.4237         frozen, calculate D2E/DX2 analyt!
 ! R6    R(2,7)                  5.03           frozen, calculate D2E/DX2 analyt!
 ! R7    R(2,8)                  0.9501         frozen, calculate D2E/DX2 analyt!
 ! R8    R(2,9)                  4.8428         frozen, calculate D2E/DX2 analyt!
 ! R9    R(2,11)                 3.1908         frozen, calculate D2E/DX2 analyt!
 ! R10   R(2,12)                 2.9533         frozen, calculate D2E/DX2 analyt!
 ! R11   R(2,13)                 6.7072         frozen, calculate D2E/DX2 analyt!
 ! R12   R(2,14)                 6.7003         frozen, calculate D2E/DX2 analyt!
 ! R13   R(2,15)                 7.1912         frozen, calculate D2E/DX2 analyt!
 ! R14   R(2,16)                 4.2165         frozen, calculate D2E/DX2 analyt!
 ! R15   R(2,17)                 5.3772         frozen, calculate D2E/DX2 analyt!
 ! R16   R(2,18)                 5.9124         frozen, calculate D2E/DX2 analyt!
 ! R17   R(3,4)                  1.3594         frozen, calculate D2E/DX2 analyt!
 ! R18   R(3,5)                  1.4565         calculate D2E/DX2 analytically  !
 ! R19   R(3,6)                  2.4921         frozen, calculate D2E/DX2 analyt!
 ! R20   R(3,7)                  2.5366         frozen, calculate D2E/DX2 analyt!
 ! R21   R(3,8)                  4.6601         frozen, calculate D2E/DX2 analyt!
 ! R22   R(3,9)                  1.0778         frozen, calculate D2E/DX2 analyt!
 ! R23   R(3,11)                 2.1474         frozen, calculate D2E/DX2 analyt!
 ! R24   R(3,12)                 2.1786         frozen, calculate D2E/DX2 analyt!
 ! R25   R(3,13)                 3.208          frozen, calculate D2E/DX2 analyt!
 ! R26   R(3,14)                 2.6117         frozen, calculate D2E/DX2 analyt!
 ! R27   R(3,15)                 3.2148         frozen, calculate D2E/DX2 analyt!
 ! R28   R(3,16)                 2.7063         frozen, calculate D2E/DX2 analyt!
 ! R29   R(3,17)                 3.252          frozen, calculate D2E/DX2 analyt!
 ! R30   R(3,18)                 3.2337         frozen, calculate D2E/DX2 analyt!
 ! R31   R(4,6)                  1.5077         frozen, calculate D2E/DX2 analyt!
 ! R32   R(4,7)                  1.5073         frozen, calculate D2E/DX2 analyt!
 ! R33   R(4,8)                  5.6117         frozen, calculate D2E/DX2 analyt!
 ! R34   R(4,9)                  2.0854         frozen, calculate D2E/DX2 analyt!
 ! R35   R(4,11)                 3.4043         frozen, calculate D2E/DX2 analyt!
 ! R36   R(4,12)                 2.8158         frozen, calculate D2E/DX2 analyt!
 ! R37   R(4,13)                 2.1498         frozen, calculate D2E/DX2 analyt!
 ! R38   R(4,14)                 2.1613         frozen, calculate D2E/DX2 analyt!
 ! R39   R(4,15)                 2.1504         frozen, calculate D2E/DX2 analyt!
 ! R40   R(4,16)                 2.1748         frozen, calculate D2E/DX2 analyt!
 ! R41   R(4,17)                 2.1405         frozen, calculate D2E/DX2 analyt!
 ! R42   R(4,18)                 2.1461         frozen, calculate D2E/DX2 analyt!
 ! R43   R(5,10)                 1.3109         calculate D2E/DX2 analytically  !
 ! R44   R(5,11)                 1.0809         calculate D2E/DX2 analytically  !
 ! R45   R(5,12)                 1.0784         calculate D2E/DX2 analytically  !
 ! R46   R(6,7)                  2.5423         frozen, calculate D2E/DX2 analyt!
 ! R47   R(6,8)                  6.9462         frozen, calculate D2E/DX2 analyt!
 ! R48   R(6,9)                  2.6426         frozen, calculate D2E/DX2 analyt!
 ! R49   R(6,11)                 4.6234         frozen, calculate D2E/DX2 analyt!
 ! R50   R(6,12)                 4.2981         frozen, calculate D2E/DX2 analyt!
 ! R51   R(6,13)                 1.0877         frozen, calculate D2E/DX2 analyt!
 ! R52   R(6,14)                 1.0837         frozen, calculate D2E/DX2 analyt!
 ! R53   R(6,15)                 1.0878         frozen, calculate D2E/DX2 analyt!
 ! R54   R(6,16)                 3.4894         frozen, calculate D2E/DX2 analyt!
 ! R55   R(6,17)                 2.7778         frozen, calculate D2E/DX2 analyt!
 ! R56   R(6,18)                 2.818          frozen, calculate D2E/DX2 analyt!
 ! R57   R(7,8)                  5.7833         frozen, calculate D2E/DX2 analyt!
 ! R58   R(7,9)                  3.4867         frozen, calculate D2E/DX2 analyt!
 ! R59   R(7,11)                 4.1194         frozen, calculate D2E/DX2 analyt!
 ! R60   R(7,12)                 2.8541         frozen, calculate D2E/DX2 analyt!
 ! R61   R(7,13)                 2.8114         frozen, calculate D2E/DX2 analyt!
 ! R62   R(7,14)                 3.4819         frozen, calculate D2E/DX2 analyt!
 ! R63   R(7,15)                 2.8042         frozen, calculate D2E/DX2 analyt!
 ! R64   R(7,16)                 1.0809         frozen, calculate D2E/DX2 analyt!
 ! R65   R(7,17)                 1.0872         frozen, calculate D2E/DX2 analyt!
 ! R66   R(7,18)                 1.0879         frozen, calculate D2E/DX2 analyt!
 ! R67   R(8,9)                  5.0706         frozen, calculate D2E/DX2 analyt!
 ! R68   R(8,11)                 3.266          frozen, calculate D2E/DX2 analyt!
 ! R69   R(8,12)                 3.4991         frozen, calculate D2E/DX2 analyt!
 ! R70   R(8,13)                 7.2807         frozen, calculate D2E/DX2 analyt!
 ! R71   R(8,14)                 7.0937         frozen, calculate D2E/DX2 analyt!
 ! R72   R(8,15)                 7.7459         frozen, calculate D2E/DX2 analyt!
 ! R73   R(8,16)                 5.0211         frozen, calculate D2E/DX2 analyt!
 ! R74   R(8,17)                 6.18           frozen, calculate D2E/DX2 analyt!
 ! R75   R(8,18)                 6.6623         frozen, calculate D2E/DX2 analyt!
 ! R76   R(9,11)                 2.4085         frozen, calculate D2E/DX2 analyt!
 ! R77   R(9,12)                 3.0756         frozen, calculate D2E/DX2 analyt!
 ! R78   R(9,13)                 3.3899         frozen, calculate D2E/DX2 analyt!
 ! R79   R(9,14)                 2.3014         frozen, calculate D2E/DX2 analyt!
 ! R80   R(9,15)                 3.4192         frozen, calculate D2E/DX2 analyt!
 ! R81   R(9,16)                 3.7715         frozen, calculate D2E/DX2 analyt!
 ! R82   R(9,17)                 4.1091         frozen, calculate D2E/DX2 analyt!
 ! R83   R(9,18)                 4.1144         frozen, calculate D2E/DX2 analyt!
 ! R84   R(11,12)                1.79           frozen, calculate D2E/DX2 analyt!
 ! R85   R(11,13)                5.345          frozen, calculate D2E/DX2 analyt!
 ! R86   R(11,14)                4.6016         frozen, calculate D2E/DX2 analyt!
 ! R87   R(11,15)                5.2465         frozen, calculate D2E/DX2 analyt!
 ! R88   R(11,16)                3.7333         frozen, calculate D2E/DX2 analyt!
 ! R89   R(11,17)                4.9214         frozen, calculate D2E/DX2 analyt!
 ! R90   R(11,18)                4.7629         frozen, calculate D2E/DX2 analyt!
 ! R91   R(12,13)                4.9099         frozen, calculate D2E/DX2 analyt!
 ! R92   R(12,14)                4.6943         frozen, calculate D2E/DX2 analyt!
 ! R93   R(12,15)                4.7839         frozen, calculate D2E/DX2 analyt!
 ! R94   R(12,16)                2.1642         frozen, calculate D2E/DX2 analyt!
 ! R95   R(12,17)                3.6867         frozen, calculate D2E/DX2 analyt!
 ! R96   R(12,18)                3.4615         frozen, calculate D2E/DX2 analyt!
 ! R97   R(13,14)                1.7576         frozen, calculate D2E/DX2 analyt!
 ! R98   R(13,15)                1.747          frozen, calculate D2E/DX2 analyt!
 ! R99   R(13,16)                3.7943         frozen, calculate D2E/DX2 analyt!
 ! R100  R(13,17)                2.6072         frozen, calculate D2E/DX2 analyt!
 ! R101  R(13,18)                3.188          frozen, calculate D2E/DX2 analyt!
 ! R102  R(14,15)                1.7575         frozen, calculate D2E/DX2 analyt!
 ! R103  R(14,16)                4.3187         frozen, calculate D2E/DX2 analyt!
 ! R104  R(14,17)                3.7769         frozen, calculate D2E/DX2 analyt!
 ! R105  R(14,18)                3.8035         frozen, calculate D2E/DX2 analyt!
 ! R106  R(15,16)                3.8117         frozen, calculate D2E/DX2 analyt!
 ! R107  R(15,17)                3.1174         frozen, calculate D2E/DX2 analyt!
 ! R108  R(15,18)                2.6432         frozen, calculate D2E/DX2 analyt!
 ! R109  R(16,17)                1.7492         frozen, calculate D2E/DX2 analyt!
 ! R110  R(16,18)                1.7565         frozen, calculate D2E/DX2 analyt!
 ! R111  R(17,18)                1.747          frozen, calculate D2E/DX2 analyt!
 ! A1    A(2,1,10)             104.0541         calculate D2E/DX2 analytically  !
 ! A2    A(1,2,8)              103.6504         calculate D2E/DX2 analytically  !
 ! A3    A(4,3,5)              127.1612         calculate D2E/DX2 analytically  !
 ! A4    A(4,3,9)              117.1941         calculate D2E/DX2 analytically  !
 ! A5    A(5,3,9)              115.5748         calculate D2E/DX2 analytically  !
 ! A6    A(3,4,6)              120.6479         calculate D2E/DX2 analytically  !
 ! A7    A(3,4,7)              124.3874         calculate D2E/DX2 analytically  !
 ! A8    A(6,4,7)              114.9647         calculate D2E/DX2 analytically  !
 ! A9    A(3,5,10)             109.0024         calculate D2E/DX2 analytically  !
 ! A10   A(3,5,11)             114.8173         calculate D2E/DX2 analytically  !
 ! A11   A(3,5,12)             117.7403         calculate D2E/DX2 analytically  !
 ! A12   A(10,5,11)            101.0653         calculate D2E/DX2 analytically  !
 ! A13   A(10,5,12)             99.5676         calculate D2E/DX2 analytically  !
 ! A14   A(11,5,12)            111.9846         calculate D2E/DX2 analytically  !
 ! A15   A(4,6,13)             110.8126         calculate D2E/DX2 analytically  !
 ! A16   A(4,6,14)             111.992          calculate D2E/DX2 analytically  !
 ! A17   A(4,6,15)             110.8512         calculate D2E/DX2 analytically  !
 ! A18   A(13,6,14)            108.0841         calculate D2E/DX2 analytically  !
 ! A19   A(13,6,15)            106.8358         calculate D2E/DX2 analytically  !
 ! A20   A(14,6,15)            108.0667         calculate D2E/DX2 analytically  !
 ! A21   A(4,7,16)             113.3093         calculate D2E/DX2 analytically  !
 ! A22   A(4,7,17)             110.1288         calculate D2E/DX2 analytically  !
 ! A23   A(4,7,18)             110.5375         calculate D2E/DX2 analytically  !
 ! A24   A(16,7,17)            107.5639         calculate D2E/DX2 analytically  !
 ! A25   A(16,7,18)            108.1748         calculate D2E/DX2 analytically  !
 ! A26   A(17,7,18)            106.8748         calculate D2E/DX2 analytically  !
 ! A27   A(1,10,5)             166.2552         calculate D2E/DX2 analytically  !
 ! D1    D(10,1,2,8)            97.5543         calculate D2E/DX2 analytically  !
 ! D2    D(2,1,10,5)            11.4639         calculate D2E/DX2 analytically  !
 ! D3    D(5,3,4,6)            178.9345         calculate D2E/DX2 analytically  !
 ! D4    D(5,3,4,7)             -1.0148         calculate D2E/DX2 analytically  !
 ! D5    D(9,3,4,6)              2.1278         calculate D2E/DX2 analytically  !
 ! D6    D(9,3,4,7)           -177.8215         calculate D2E/DX2 analytically  !
 ! D7    D(4,3,5,10)           -87.8337         calculate D2E/DX2 analytically  !
 ! D8    D(4,3,5,11)           159.6534         calculate D2E/DX2 analytically  !
 ! D9    D(4,3,5,12)            24.4833         calculate D2E/DX2 analytically  !
 ! D10   D(9,3,5,10)            89.0175         calculate D2E/DX2 analytically  !
 ! D11   D(9,3,5,11)           -23.4954         calculate D2E/DX2 analytically  !
 ! D12   D(9,3,5,12)          -158.6655         calculate D2E/DX2 analytically  !
 ! D13   D(3,4,6,13)          -120.2064         calculate D2E/DX2 analytically  !
 ! D14   D(3,4,6,14)             0.5678         calculate D2E/DX2 analytically  !
 ! D15   D(3,4,6,15)           121.3466         calculate D2E/DX2 analytically  !
 ! D16   D(7,4,6,13)            59.7474         calculate D2E/DX2 analytically  !
 ! D17   D(7,4,6,14)          -179.4784         calculate D2E/DX2 analytically  !
 ! D18   D(7,4,6,15)           -58.6995         calculate D2E/DX2 analytically  !
 ! D19   D(3,4,7,16)             2.7581         calculate D2E/DX2 analytically  !
 ! D20   D(3,4,7,17)           123.2809         calculate D2E/DX2 analytically  !
 ! D21   D(3,4,7,18)          -118.8498         calculate D2E/DX2 analytically  !
 ! D22   D(6,4,7,16)          -177.1938         calculate D2E/DX2 analytically  !
 ! D23   D(6,4,7,17)           -56.671          calculate D2E/DX2 analytically  !
 ! D24   D(6,4,7,18)            61.1983         calculate D2E/DX2 analytically  !
 ! D25   D(3,5,10,1)           159.4222         calculate D2E/DX2 analytically  !
 ! D26   D(11,5,10,1)          -79.2674         calculate D2E/DX2 analytically  !
 ! D27   D(12,5,10,1)           35.5541         calculate D2E/DX2 analytically  !
 --------------------------------------------------------------------------------
 Trust Radius=3.00D-01 FncErr=1.00D-07 GrdErr=1.00D-07
 Number of steps in this run=    108 maximum allowed number of steps=    108.
 Search for a saddle point of order  1.
 GradGradGradGradGradGradGradGradGradGradGradGradGradGradGradGradGradGrad

 Leave Link  103 at Thu Apr 26 16:14:16 2018, MaxMem=  671088640 cpu:       0.2
 (Enter /shared/apps/gaussian/G09_LINUX_LINDA/g09/l202.exe)
                          Input orientation:                          
 ---------------------------------------------------------------------
 Center     Atomic      Atomic             Coordinates (Angstroms)
 Number     Number       Type             X           Y           Z
 ---------------------------------------------------------------------
      1          8           0       -3.167711    0.172633   -0.747667
      2          8           0       -3.886148    1.315596   -0.522239
      3          6           0        0.229421    0.366290   -1.089708
      4          6           0        0.917368   -0.132961   -0.028869
      5          6           0       -0.906574    1.277008   -1.051809
      6          6           0        2.063041   -1.090573   -0.237643
      7          6           0        0.621826    0.201165    1.410888
      8          1           0       -4.281779    1.501780   -1.365738
      9          1           0        0.516430    0.020965   -2.069529
     10          1           0       -2.010691    0.578065   -0.947287
     11          1           0       -1.087795    1.814817   -1.971768
     12          1           0       -1.013064    1.910900   -0.185916
     13          1           0        1.869118   -2.039160    0.258095
     14          1           0        2.239078   -1.289849   -1.288177
     15          1           0        2.981779   -0.694082    0.189102
     16          1           0       -0.233496    0.850862    1.532318
     17          1           0        0.425481   -0.708304    1.973336
     18          1           0        1.480755    0.680557    1.875489
 ---------------------------------------------------------------------
                    Distance matrix (angstroms):
                    1          2          3          4          5
     1  O    0.000000
     2  O    1.368698   0.000000
     3  C    3.419796   4.261586   0.000000
     4  C    4.159078   5.041379   1.359376   0.000000
     5  C    2.534736   3.026516   1.456478   2.522139   0.000000
     6  C    5.405236   6.423666   2.492112   1.507704   3.884187
     7  C    4.361281   5.029987   2.536578   1.507278   3.091654
     8  H    1.841139   0.950094   4.660092   5.611660   3.397217
     9  H    3.917041   4.842816   1.077809   2.085363   2.153679
    10  H    1.242142   2.059601   2.254604   3.150014   1.310924
    11  H    2.919117   3.190789   2.147399   3.404318   1.080928
    12  H    2.824826   2.953322   2.178629   2.815777   1.078393
    13  H    5.592248   6.707190   3.208017   2.149830   4.518549
    14  H    5.627110   6.700253   2.611687   2.161287   4.066909
    15  H    6.280522   7.191191   3.214843   2.150386   4.532586
    16  H    3.777293   4.216521   2.706311   2.174787   2.704136
    17  H    4.592487   5.377194   3.251988   2.140513   3.855818
    18  H    5.361638   5.912362   3.233727   2.146111   3.824156
                    6          7          8          9         10
     6  C    0.000000
     7  C    2.542310   0.000000
     8  H    6.946195   5.783303   0.000000
     9  H    2.642599   3.486672   5.070595   0.000000
    10  H    4.459063   3.554321   2.487205   2.820661   0.000000
    11  H    4.623445   4.119350   3.266006   2.408526   1.852257
    12  H    4.298131   2.854092   3.499122   3.075581   1.830682
    13  H    1.087741   2.811357   7.280703   3.389944   4.832778
    14  H    1.083661   3.481893   7.093714   2.301361   4.654659
    15  H    1.087841   2.804212   7.745877   3.419160   5.275841
    16  H    3.489414   1.080938   5.021058   3.771527   3.062889
    17  H    2.777798   1.087213   6.179983   4.109119   4.014938
    18  H    2.818028   1.087855   6.662338   4.114383   4.490965
                   11         12         13         14         15
    11  H    0.000000
    12  H    1.789996   0.000000
    13  H    5.344976   4.909897   0.000000
    14  H    4.601558   4.694273   1.757639   0.000000
    15  H    5.246462   4.783862   1.747000   1.757526   0.000000
    16  H    3.733318   2.164194   3.794319   4.318733   3.811702
    17  H    4.921381   3.686734   2.607167   3.776877   3.117427
    18  H    4.762918   3.461541   3.188048   3.803464   2.643219
                   16         17         18
    16  H    0.000000
    17  H    1.749212   0.000000
    18  H    1.756538   1.747029   0.000000
 Stoichiometry    C5H11O2(2)
 Framework group  C1[X(C5H11O2)]
 Deg. of freedom    48
 Full point group                 C1      NOp   1
 Largest Abelian subgroup         C1      NOp   1
 Largest concise Abelian subgroup C1      NOp   1
                         Standard orientation:                         
 ---------------------------------------------------------------------
 Center     Atomic      Atomic             Coordinates (Angstroms)
 Number     Number       Type             X           Y           Z
 ---------------------------------------------------------------------
      1          8           0       -2.386545   -0.017468    0.875202
      2          8           0       -3.354664    0.379517   -0.007115
      3          6           0        0.697580   -0.905499   -0.305721
      4          6           0        1.672450    0.001331   -0.031515
      5          6           0       -0.628910   -0.635780   -0.843314
      6          6           0        2.992176   -0.440620    0.548290
      7          6           0        1.545539    1.484820   -0.266120
      8          1           0       -3.926330   -0.376901   -0.068018
      9          1           0        0.898912   -1.935070   -0.058495
     10          1           0       -1.448585   -0.385064    0.148551
     11          1           0       -1.113487   -1.485563   -1.303161
     12          1           0       -0.763293    0.266003   -1.419213
     13          1           0        3.169167    0.032940    1.511408
     14          1           0        3.034610   -1.514331    0.688522
     15          1           0        3.816222   -0.152328   -0.100736
     16          1           0        0.573198    1.777630   -0.636582
     17          1           0        1.720430    2.026421    0.660224
     18          1           0        2.295818    1.824360   -0.976910
 ---------------------------------------------------------------------
 Rotational constants (GHZ):      5.0685522      0.9214062      0.8728265
 Leave Link  202 at Thu Apr 26 16:14:16 2018, MaxMem=  671088640 cpu:       0.9
 (Enter /shared/apps/gaussian/G09_LINUX_LINDA/g09/l301.exe)
 Standard basis: 6-31G(d) (6D, 7F)
 Ernie: Thresh=  0.10000D-02 Tol=  0.10000D-05 Strict=F.
 There are   127 symmetry adapted basis functions of A   symmetry.
 Integral buffers will be    131072 words long.
 Raffenetti 2 integral format.
 Two-electron integral symmetry is turned on.
   127 basis functions,   240 primitive gaussians,   127 cartesian basis functions
    29 alpha electrons       28 beta electrons
       nuclear repulsion energy       295.0913800312 Hartrees.
 IExCor=    0 DFT=F Ex=HF Corr=None ExCW=0 ScaHFX=  1.000000
 ScaDFX=  1.000000  1.000000  1.000000  1.000000 ScalE2=  1.000000  1.000000
 IRadAn=      0 IRanWt=     -1 IRanGd=            0 ICorTp=0
 NAtoms=   18 NActive=   18 NUniq=   18 SFac= 1.00D+00 NAtFMM=   50 NAOKFM=F Big=F
 Leave Link  301 at Thu Apr 26 16:14:16 2018, MaxMem=  671088640 cpu:       1.0
 (Enter /shared/apps/gaussian/G09_LINUX_LINDA/g09/l302.exe)
 NPDir=0 NMtPBC=     1 NCelOv=     1 NCel=       1 NClECP=     1 NCelD=      1
         NCelK=      1 NCelE2=     1 NClLst=     1 CellRange=     0.0.
 One-electron integrals computed using PRISM.
 NBasis=   127 RedAO= T  NBF=   127
 NBsUse=   127 1.00D-06 NBFU=   127
 Leave Link  302 at Thu Apr 26 16:14:17 2018, MaxMem=  671088640 cpu:       6.6
 (Enter /shared/apps/gaussian/G09_LINUX_LINDA/g09/l303.exe)
 DipDrv:  MaxL=1.
 Leave Link  303 at Thu Apr 26 16:14:17 2018, MaxMem=  671088640 cpu:       1.6
 (Enter /shared/apps/gaussian/G09_LINUX_LINDA/g09/l401.exe)
 Harris functional with IExCor=  205 diagonalized for initial guess.
 ExpMin= 1.61D-01 ExpMax= 5.48D+03 ExpMxC= 8.25D+02 IAcc=1 IRadAn=         1 AccDes= 0.00D+00
 HarFok:  IExCor=  205 AccDes= 0.00D+00 IRadAn=         1 IDoV= 1
 ScaDFX=  1.000000  1.000000  1.000000  1.000000
 FoFCou: FMM=F IPFlag=           0 FMFlag=      100000 FMFlg1=           0
         NFxFlg=           0 DoJE=T BraDBF=F KetDBF=T FulRan=T
         Omega=  0.000000  0.000000  1.000000  0.000000  0.000000 ICntrl=     500 IOpCl=  0
         NMat0=    1 NMatS0=    1 NMatT0=    0 NMatD0=    1 NMtDS0=    0 NMtDT0=    0
         I1Cent=           4 NGrid=           0.
 Petite list used in FoFCou.
 Harris En= -345.810748530121    
 Initial guess orbital symmetries:
 Alpha Orbitals:
       Occupied  (A) (A) (A) (A) (A) (A) (A) (A) (A) (A) (A) (A)
                 (A) (A) (A) (A) (A) (A) (A) (A) (A) (A) (A) (A)
                 (A) (A) (A) (A) (A)
       Virtual   (A) (A) (A) (A) (A) (A) (A) (A) (A) (A) (A) (A)
                 (A) (A) (A) (A) (A) (A) (A) (A) (A) (A) (A) (A)
                 (A) (A) (A) (A) (A) (A) (A) (A) (A) (A) (A) (A)
                 (A) (A) (A) (A) (A) (A) (A) (A) (A) (A) (A) (A)
                 (A) (A) (A) (A) (A) (A) (A) (A) (A) (A) (A) (A)
                 (A) (A) (A) (A) (A) (A) (A) (A) (A) (A) (A) (A)
                 (A) (A) (A) (A) (A) (A) (A) (A) (A) (A) (A) (A)
                 (A) (A) (A) (A) (A) (A) (A) (A) (A) (A) (A) (A)
                 (A) (A)
 Beta  Orbitals:
       Occupied  (A) (A) (A) (A) (A) (A) (A) (A) (A) (A) (A) (A)
                 (A) (A) (A) (A) (A) (A) (A) (A) (A) (A) (A) (A)
                 (A) (A) (A) (A)
       Virtual   (A) (A) (A) (A) (A) (A) (A) (A) (A) (A) (A) (A)
                 (A) (A) (A) (A) (A) (A) (A) (A) (A) (A) (A) (A)
                 (A) (A) (A) (A) (A) (A) (A) (A) (A) (A) (A) (A)
                 (A) (A) (A) (A) (A) (A) (A) (A) (A) (A) (A) (A)
                 (A) (A) (A) (A) (A) (A) (A) (A) (A) (A) (A) (A)
                 (A) (A) (A) (A) (A) (A) (A) (A) (A) (A) (A) (A)
                 (A) (A) (A) (A) (A) (A) (A) (A) (A) (A) (A) (A)
                 (A) (A) (A) (A) (A) (A) (A) (A) (A) (A) (A) (A)
                 (A) (A) (A)
 The electronic state of the initial guess is 2-A.
 Initial guess <Sx>= 0.0000 <Sy>= 0.0000 <Sz>= 0.5000 <S**2>= 0.7500 S= 0.5000
 Leave Link  401 at Thu Apr 26 16:14:20 2018, MaxMem=  671088640 cpu:      26.2
 (Enter /shared/apps/gaussian/G09_LINUX_LINDA/g09/l502.exe)
 UHF open shell SCF:
 Requested convergence on RMS density matrix=1.00D-08 within 128 cycles.
 Requested convergence on MAX density matrix=1.00D-06.
 Requested convergence on             energy=1.00D-06.
 No special actions if energy rises.
 Using DIIS extrapolation, IDIIS=  1040.
 Integral symmetry usage will be decided dynamically.
 Keep R1 and R2 ints in memory in canonical form, NReq=67191093.
 IEnd=       70048 IEndB=       70048 NGot=   671088640 MDV=   604978949
 LenX=   604978949 LenY=   604962379
 Symmetry not used in FoFDir.
 MinBra= 0 MaxBra= 2 Meth= 1.
 IRaf=       0 NMat=   1 IRICut=       1 DoRegI=T DoRafI=F ISym2E= 0 JSym2E=0.

 Cycle   1  Pass 1  IDiag  1:
 E= -344.868296620879    
 DIIS: error= 4.27D-02 at cycle   1 NSaved=   1.
 NSaved= 1 IEnMin= 1 EnMin= -344.868296620879     IErMin= 1 ErrMin= 4.27D-02
 ErrMax= 4.27D-02 EMaxC= 1.00D-01 BMatC= 2.00D+00 BMatP= 2.00D+00
 IDIUse=3 WtCom= 5.73D-01 WtEn= 4.27D-01
 Coeff-Com:  0.100D+01
 Coeff-En:   0.100D+01
 Coeff:      0.100D+01
 Gap=     0.600 Goal=   None    Shift=    0.000
 Gap=     0.526 Goal=   None    Shift=    0.000
 GapD=    0.526 DampG=2.000 DampE=0.500 DampFc=1.0000 IDamp=-1.
 RMSDP=5.75D-03 MaxDP=1.13D-01              OVMax= 1.88D-01

 Cycle   2  Pass 1  IDiag  1:
 E= -345.185428810356     Delta-E=       -0.317132189477 Rises=F Damp=F
 DIIS: error= 1.72D-02 at cycle   2 NSaved=   2.
 NSaved= 2 IEnMin= 2 EnMin= -345.185428810356     IErMin= 2 ErrMin= 1.72D-02
 ErrMax= 1.72D-02 EMaxC= 1.00D-01 BMatC= 2.25D-01 BMatP= 2.00D+00
 IDIUse=3 WtCom= 8.28D-01 WtEn= 1.72D-01
 Coeff-Com:  0.177D+00 0.823D+00
 Coeff-En:   0.000D+00 0.100D+01
 Coeff:      0.146D+00 0.854D+00
 Gap=     0.578 Goal=   None    Shift=    0.000
 Gap=     0.346 Goal=   None    Shift=    0.000
 RMSDP=2.63D-03 MaxDP=4.52D-02 DE=-3.17D-01 OVMax= 9.24D-02

 Cycle   3  Pass 1  IDiag  1:
 E= -345.241466701183     Delta-E=       -0.056037890826 Rises=F Damp=F
 DIIS: error= 5.81D-03 at cycle   3 NSaved=   3.
 NSaved= 3 IEnMin= 3 EnMin= -345.241466701183     IErMin= 3 ErrMin= 5.81D-03
 ErrMax= 5.81D-03 EMaxC= 1.00D-01 BMatC= 1.95D-02 BMatP= 2.25D-01
 IDIUse=3 WtCom= 9.42D-01 WtEn= 5.81D-02
 Coeff-Com: -0.204D-01 0.148D+00 0.872D+00
 Coeff-En:   0.000D+00 0.000D+00 0.100D+01
 Coeff:     -0.192D-01 0.139D+00 0.880D+00
 Gap=     0.500 Goal=   None    Shift=    0.000
 Gap=     0.353 Goal=   None    Shift=    0.000
 RMSDP=6.84D-04 MaxDP=1.39D-02 DE=-5.60D-02 OVMax= 4.92D-02

 Cycle   4  Pass 1  IDiag  1:
 E= -345.249910265631     Delta-E=       -0.008443564449 Rises=F Damp=F
 DIIS: error= 3.04D-03 at cycle   4 NSaved=   4.
 NSaved= 4 IEnMin= 4 EnMin= -345.249910265631     IErMin= 4 ErrMin= 3.04D-03
 ErrMax= 3.04D-03 EMaxC= 1.00D-01 BMatC= 3.81D-03 BMatP= 1.95D-02
 IDIUse=3 WtCom= 9.70D-01 WtEn= 3.04D-02
 Coeff-Com: -0.755D-02-0.187D-01 0.911D-01 0.935D+00
 Coeff-En:   0.000D+00 0.000D+00 0.000D+00 0.100D+01
 Coeff:     -0.732D-02-0.182D-01 0.884D-01 0.937D+00
 Gap=     0.498 Goal=   None    Shift=    0.000
 Gap=     0.371 Goal=   None    Shift=    0.000
 RMSDP=3.70D-04 MaxDP=1.09D-02 DE=-8.44D-03 OVMax= 2.78D-02

 Cycle   5  Pass 1  IDiag  1:
 E= -345.252878783369     Delta-E=       -0.002968517737 Rises=F Damp=F
 DIIS: error= 1.77D-03 at cycle   5 NSaved=   5.
 NSaved= 5 IEnMin= 5 EnMin= -345.252878783369     IErMin= 5 ErrMin= 1.77D-03
 ErrMax= 1.77D-03 EMaxC= 1.00D-01 BMatC= 1.84D-03 BMatP= 3.81D-03
 IDIUse=3 WtCom= 9.82D-01 WtEn= 1.77D-02
 Coeff-Com:  0.118D-01-0.612D-01-0.415D+00-0.160D+00 0.162D+01
 Coeff-En:   0.000D+00 0.000D+00 0.000D+00 0.000D+00 0.100D+01
 Coeff:      0.116D-01-0.601D-01-0.407D+00-0.157D+00 0.161D+01
 Gap=     0.508 Goal=   None    Shift=    0.000
 Gap=     0.399 Goal=   None    Shift=    0.000
 RMSDP=5.58D-04 MaxDP=1.69D-02 DE=-2.97D-03 OVMax= 3.99D-02

 Cycle   6  Pass 1  IDiag  1:
 E= -345.255556052554     Delta-E=       -0.002677269185 Rises=F Damp=F
 DIIS: error= 1.13D-03 at cycle   6 NSaved=   6.
 NSaved= 6 IEnMin= 6 EnMin= -345.255556052554     IErMin= 6 ErrMin= 1.13D-03
 ErrMax= 1.13D-03 EMaxC= 1.00D-01 BMatC= 4.89D-04 BMatP= 1.84D-03
 IDIUse=3 WtCom= 9.89D-01 WtEn= 1.13D-02
 Coeff-Com:  0.262D-02 0.213D-02-0.435D-01-0.143D+00 0.164D+00 0.102D+01
 Coeff-En:   0.000D+00 0.000D+00 0.000D+00 0.000D+00 0.000D+00 0.100D+01
 Coeff:      0.259D-02 0.210D-02-0.430D-01-0.142D+00 0.162D+00 0.102D+01
 Gap=     0.510 Goal=   None    Shift=    0.000
 Gap=     0.406 Goal=   None    Shift=    0.000
 RMSDP=1.92D-04 MaxDP=6.78D-03 DE=-2.68D-03 OVMax= 1.53D-02

 Cycle   7  Pass 1  IDiag  1:
 E= -345.256154317077     Delta-E=       -0.000598264523 Rises=F Damp=F
 DIIS: error= 9.92D-04 at cycle   7 NSaved=   7.
 NSaved= 7 IEnMin= 7 EnMin= -345.256154317077     IErMin= 7 ErrMin= 9.92D-04
 ErrMax= 9.92D-04 EMaxC= 1.00D-01 BMatC= 2.85D-04 BMatP= 4.89D-04
 IDIUse=3 WtCom= 9.90D-01 WtEn= 9.92D-03
 Coeff-Com: -0.385D-02 0.239D-01 0.142D+00 0.480D-01-0.594D+00 0.116D+00
 Coeff-Com:  0.127D+01
 Coeff-En:   0.000D+00 0.000D+00 0.000D+00 0.000D+00 0.000D+00 0.000D+00
 Coeff-En:   0.100D+01
 Coeff:     -0.381D-02 0.237D-01 0.141D+00 0.475D-01-0.588D+00 0.115D+00
 Coeff:      0.126D+01
 Gap=     0.513 Goal=   None    Shift=    0.000
 Gap=     0.410 Goal=   None    Shift=    0.000
 RMSDP=2.16D-04 MaxDP=8.49D-03 DE=-5.98D-04 OVMax= 1.99D-02

 Cycle   8  Pass 1  IDiag  1:
 E= -345.256706932000     Delta-E=       -0.000552614923 Rises=F Damp=F
 DIIS: error= 7.95D-04 at cycle   8 NSaved=   8.
 NSaved= 8 IEnMin= 8 EnMin= -345.256706932000     IErMin= 8 ErrMin= 7.95D-04
 ErrMax= 7.95D-04 EMaxC= 1.00D-01 BMatC= 1.59D-04 BMatP= 2.85D-04
 IDIUse=3 WtCom= 9.92D-01 WtEn= 7.95D-03
 Coeff-Com:  0.314D-02-0.285D-01-0.140D+00 0.444D-01 0.508D+00-0.683D+00
 Coeff-Com: -0.146D+01 0.276D+01
 Coeff-En:   0.000D+00 0.000D+00 0.000D+00 0.000D+00 0.000D+00 0.000D+00
 Coeff-En:   0.000D+00 0.100D+01
 Coeff:      0.312D-02-0.282D-01-0.139D+00 0.441D-01 0.504D+00-0.678D+00
 Coeff:     -0.145D+01 0.274D+01
 Gap=     0.520 Goal=   None    Shift=    0.000
 Gap=     0.418 Goal=   None    Shift=    0.000
 RMSDP=3.87D-04 MaxDP=1.59D-02 DE=-5.53D-04 OVMax= 3.67D-02

 Cycle   9  Pass 1  IDiag  1:
 E= -345.257349006394     Delta-E=       -0.000642074395 Rises=F Damp=F
 DIIS: error= 4.21D-04 at cycle   9 NSaved=   9.
 NSaved= 9 IEnMin= 9 EnMin= -345.257349006394     IErMin= 9 ErrMin= 4.21D-04
 ErrMax= 4.21D-04 EMaxC= 1.00D-01 BMatC= 4.13D-05 BMatP= 1.59D-04
 IDIUse=3 WtCom= 9.96D-01 WtEn= 4.21D-03
 Coeff-Com:  0.106D-02-0.276D-02-0.276D-01-0.530D-01 0.188D+00 0.142D+00
 Coeff-Com: -0.673D-01-0.935D+00 0.175D+01
 Coeff-En:   0.000D+00 0.000D+00 0.000D+00 0.000D+00 0.000D+00 0.000D+00
 Coeff-En:   0.000D+00 0.000D+00 0.100D+01
 Coeff:      0.106D-02-0.275D-02-0.275D-01-0.528D-01 0.188D+00 0.142D+00
 Coeff:     -0.670D-01-0.931D+00 0.175D+01
 Gap=     0.525 Goal=   None    Shift=    0.000
 Gap=     0.420 Goal=   None    Shift=    0.000
 RMSDP=2.10D-04 MaxDP=8.83D-03 DE=-6.42D-04 OVMax= 1.96D-02

 Cycle  10  Pass 1  IDiag  1:
 E= -345.257490821322     Delta-E=       -0.000141814928 Rises=F Damp=F
 DIIS: error= 1.47D-04 at cycle  10 NSaved=  10.
 NSaved=10 IEnMin=10 EnMin= -345.257490821322     IErMin=10 ErrMin= 1.47D-04
 ErrMax= 1.47D-04 EMaxC= 1.00D-01 BMatC= 6.53D-06 BMatP= 4.13D-05
 IDIUse=3 WtCom= 9.99D-01 WtEn= 1.47D-03
 Coeff-Com: -0.550D-03 0.474D-02 0.258D-01-0.182D-01-0.767D-01 0.114D+00
 Coeff-Com:  0.235D+00-0.365D+00-0.160D+00 0.124D+01
 Coeff-En:   0.000D+00 0.000D+00 0.000D+00 0.000D+00 0.000D+00 0.000D+00
 Coeff-En:   0.000D+00 0.000D+00 0.000D+00 0.100D+01
 Coeff:     -0.549D-03 0.473D-02 0.257D-01-0.181D-01-0.766D-01 0.114D+00
 Coeff:      0.235D+00-0.365D+00-0.160D+00 0.124D+01
 Gap=     0.525 Goal=   None    Shift=    0.000
 Gap=     0.420 Goal=   None    Shift=    0.000
 RMSDP=3.90D-05 MaxDP=1.46D-03 DE=-1.42D-04 OVMax= 3.75D-03

 Cycle  11  Pass 1  IDiag  1:
 E= -345.257501927256     Delta-E=       -0.000011105934 Rises=F Damp=F
 DIIS: error= 9.60D-05 at cycle  11 NSaved=  11.
 NSaved=11 IEnMin=11 EnMin= -345.257501927256     IErMin=11 ErrMin= 9.60D-05
 ErrMax= 9.60D-05 EMaxC= 1.00D-01 BMatC= 2.17D-06 BMatP= 6.53D-06
 IDIUse=1 WtCom= 1.00D+00 WtEn= 0.00D+00
 Coeff-Com: -0.225D-03 0.651D-03 0.763D-02 0.293D-02-0.320D-01-0.213D-01
 Coeff-Com: -0.123D-01 0.202D+00-0.345D+00-0.167D+00 0.136D+01
 Coeff:     -0.225D-03 0.651D-03 0.763D-02 0.293D-02-0.320D-01-0.213D-01
 Coeff:     -0.123D-01 0.202D+00-0.345D+00-0.167D+00 0.136D+01
 Gap=     0.526 Goal=   None    Shift=    0.000
 Gap=     0.420 Goal=   None    Shift=    0.000
 RMSDP=2.53D-05 MaxDP=8.61D-04 DE=-1.11D-05 OVMax= 2.50D-03

 Cycle  12  Pass 1  IDiag  1:
 E= -345.257506082034     Delta-E=       -0.000004154779 Rises=F Damp=F
 DIIS: error= 5.47D-05 at cycle  12 NSaved=  12.
 NSaved=12 IEnMin=12 EnMin= -345.257506082034     IErMin=12 ErrMin= 5.47D-05
 ErrMax= 5.47D-05 EMaxC= 1.00D-01 BMatC= 7.68D-07 BMatP= 2.17D-06
 IDIUse=1 WtCom= 1.00D+00 WtEn= 0.00D+00
 Coeff-Com:  0.232D-03-0.140D-02-0.858D-02-0.542D-02 0.445D-01-0.189D-01
 Coeff-Com: -0.584D-01-0.593D-02 0.211D+00-0.278D+00-0.623D+00 0.174D+01
 Coeff:      0.232D-03-0.140D-02-0.858D-02-0.542D-02 0.445D-01-0.189D-01
 Coeff:     -0.584D-01-0.593D-02 0.211D+00-0.278D+00-0.623D+00 0.174D+01
 Gap=     0.526 Goal=   None    Shift=    0.000
 Gap=     0.420 Goal=   None    Shift=    0.000
 RMSDP=1.74D-05 MaxDP=3.87D-04 DE=-4.15D-06 OVMax= 1.74D-03

 Cycle  13  Pass 1  IDiag  1:
 E= -345.257507663756     Delta-E=       -0.000001581722 Rises=F Damp=F
 DIIS: error= 2.62D-05 at cycle  13 NSaved=  13.
 NSaved=13 IEnMin=13 EnMin= -345.257507663756     IErMin=13 ErrMin= 2.62D-05
 ErrMax= 2.62D-05 EMaxC= 1.00D-01 BMatC= 2.29D-07 BMatP= 7.68D-07
 IDIUse=1 WtCom= 1.00D+00 WtEn= 0.00D+00
 Coeff-Com:  0.194D-04 0.662D-04-0.161D-03-0.274D-02 0.768D-02 0.512D-02
 Coeff-Com:  0.192D-01-0.606D-01 0.700D-01 0.109D+00-0.307D+00-0.297D+00
 Coeff-Com:  0.146D+01
 Coeff:      0.194D-04 0.662D-04-0.161D-03-0.274D-02 0.768D-02 0.512D-02
 Coeff:      0.192D-01-0.606D-01 0.700D-01 0.109D+00-0.307D+00-0.297D+00
 Coeff:      0.146D+01
 Gap=     0.526 Goal=   None    Shift=    0.000
 Gap=     0.420 Goal=   None    Shift=    0.000
 RMSDP=8.82D-06 MaxDP=3.04D-04 DE=-1.58D-06 OVMax= 7.69D-04

 Cycle  14  Pass 1  IDiag  1:
 E= -345.257508085011     Delta-E=       -0.000000421255 Rises=F Damp=F
 DIIS: error= 1.52D-05 at cycle  14 NSaved=  14.
 NSaved=14 IEnMin=14 EnMin= -345.257508085011     IErMin=14 ErrMin= 1.52D-05
 ErrMax= 1.52D-05 EMaxC= 1.00D-01 BMatC= 7.36D-08 BMatP= 2.29D-07
 IDIUse=1 WtCom= 1.00D+00 WtEn= 0.00D+00
 Coeff-Com: -0.589D-04 0.360D-03 0.253D-02 0.148D-03-0.107D-01 0.571D-02
 Coeff-Com:  0.159D-01 0.769D-04-0.661D-01 0.978D-01 0.195D+00-0.615D+00
 Coeff-Com:  0.103D+00 0.127D+01
 Coeff:     -0.589D-04 0.360D-03 0.253D-02 0.148D-03-0.107D-01 0.571D-02
 Coeff:      0.159D-01 0.769D-04-0.661D-01 0.978D-01 0.195D+00-0.615D+00
 Coeff:      0.103D+00 0.127D+01
 Gap=     0.526 Goal=   None    Shift=    0.000
 Gap=     0.420 Goal=   None    Shift=    0.000
 RMSDP=5.14D-06 MaxDP=1.77D-04 DE=-4.21D-07 OVMax= 4.75D-04

 Cycle  15  Pass 1  IDiag  1:
 E= -345.257508219923     Delta-E=       -0.000000134912 Rises=F Damp=F
 DIIS: error= 1.05D-05 at cycle  15 NSaved=  15.
 NSaved=15 IEnMin=15 EnMin= -345.257508219923     IErMin=15 ErrMin= 1.05D-05
 ErrMax= 1.05D-05 EMaxC= 1.00D-01 BMatC= 1.91D-08 BMatP= 7.36D-08
 IDIUse=1 WtCom= 1.00D+00 WtEn= 0.00D+00
 Coeff-Com:  0.844D-05-0.918D-04-0.393D-03 0.507D-04 0.524D-03-0.125D-02
 Coeff-Com: -0.996D-02 0.152D-01-0.341D-02-0.543D-01 0.427D-01 0.228D+00
 Coeff-Com: -0.423D+00-0.413D+00 0.162D+01
 Coeff:      0.844D-05-0.918D-04-0.393D-03 0.507D-04 0.524D-03-0.125D-02
 Coeff:     -0.996D-02 0.152D-01-0.341D-02-0.543D-01 0.427D-01 0.228D+00
 Coeff:     -0.423D+00-0.413D+00 0.162D+01
 Gap=     0.526 Goal=   None    Shift=    0.000
 Gap=     0.420 Goal=   None    Shift=    0.000
 RMSDP=3.10D-06 MaxDP=1.03D-04 DE=-1.35D-07 OVMax= 2.66D-04

 Cycle  16  Pass 1  IDiag  1:
 E= -345.257508256681     Delta-E=       -0.000000036757 Rises=F Damp=F
 DIIS: error= 7.55D-06 at cycle  16 NSaved=  16.
 NSaved=16 IEnMin=16 EnMin= -345.257508256681     IErMin=16 ErrMin= 7.55D-06
 ErrMax= 7.55D-06 EMaxC= 1.00D-01 BMatC= 4.60D-09 BMatP= 1.91D-08
 IDIUse=1 WtCom= 1.00D+00 WtEn= 0.00D+00
 Coeff-Com:  0.626D-05-0.256D-04-0.319D-03-0.579D-04 0.196D-02-0.111D-02
 Coeff-Com:  0.278D-03-0.261D-02 0.122D-01-0.454D-02-0.503D-01 0.756D-01
 Coeff-Com:  0.843D-01-0.188D+00-0.436D+00 0.151D+01
 Coeff:      0.626D-05-0.256D-04-0.319D-03-0.579D-04 0.196D-02-0.111D-02
 Coeff:      0.278D-03-0.261D-02 0.122D-01-0.454D-02-0.503D-01 0.756D-01
 Coeff:      0.843D-01-0.188D+00-0.436D+00 0.151D+01
 Gap=     0.526 Goal=   None    Shift=    0.000
 Gap=     0.420 Goal=   None    Shift=    0.000
 RMSDP=1.23D-06 MaxDP=4.13D-05 DE=-3.68D-08 OVMax= 6.94D-05

 Cycle  17  Pass 1  IDiag  1:
 E= -345.257508263426     Delta-E=       -0.000000006746 Rises=F Damp=F
 DIIS: error= 3.75D-06 at cycle  17 NSaved=  17.
 NSaved=17 IEnMin=17 EnMin= -345.257508263426     IErMin=17 ErrMin= 3.75D-06
 ErrMax= 3.75D-06 EMaxC= 1.00D-01 BMatC= 1.31D-09 BMatP= 4.60D-09
 IDIUse=1 WtCom= 1.00D+00 WtEn= 0.00D+00
 Coeff-Com: -0.353D-05 0.340D-04 0.153D-03-0.141D-04-0.437D-03 0.670D-03
 Coeff-Com:  0.310D-02-0.498D-02 0.139D-03 0.150D-01-0.990D-02-0.621D-01
 Coeff-Com:  0.103D+00 0.112D+00-0.384D+00-0.351D-01 0.126D+01
 Coeff:     -0.353D-05 0.340D-04 0.153D-03-0.141D-04-0.437D-03 0.670D-03
 Coeff:      0.310D-02-0.498D-02 0.139D-03 0.150D-01-0.990D-02-0.621D-01
 Coeff:      0.103D+00 0.112D+00-0.384D+00-0.351D-01 0.126D+01
 Gap=     0.526 Goal=   None    Shift=    0.000
 Gap=     0.420 Goal=   None    Shift=    0.000
 RMSDP=4.80D-07 MaxDP=1.26D-05 DE=-6.75D-09 OVMax= 2.73D-05

 Cycle  18  Pass 1  IDiag  1:
 E= -345.257508265257     Delta-E=       -0.000000001831 Rises=F Damp=F
 DIIS: error= 2.35D-06 at cycle  18 NSaved=  18.
 NSaved=18 IEnMin=18 EnMin= -345.257508265257     IErMin=18 ErrMin= 2.35D-06
 ErrMax= 2.35D-06 EMaxC= 1.00D-01 BMatC= 5.45D-10 BMatP= 1.31D-09
 IDIUse=1 WtCom= 1.00D+00 WtEn= 0.00D+00
 Coeff-Com: -0.173D-05 0.413D-05 0.847D-04 0.730D-04-0.829D-03 0.503D-03
 Coeff-Com: -0.904D-03 0.207D-02-0.458D-02-0.374D-02 0.214D-01-0.259D-02
 Coeff-Com: -0.657D-01 0.118D-01 0.305D+00-0.443D+00-0.733D+00 0.191D+01
 Coeff:     -0.173D-05 0.413D-05 0.847D-04 0.730D-04-0.829D-03 0.503D-03
 Coeff:     -0.904D-03 0.207D-02-0.458D-02-0.374D-02 0.214D-01-0.259D-02
 Coeff:     -0.657D-01 0.118D-01 0.305D+00-0.443D+00-0.733D+00 0.191D+01
 Gap=     0.526 Goal=   None    Shift=    0.000
 Gap=     0.420 Goal=   None    Shift=    0.000
 RMSDP=4.63D-07 MaxDP=1.31D-05 DE=-1.83D-09 OVMax= 2.84D-05

 Cycle  19  Pass 1  IDiag  1:
 E= -345.257508266247     Delta-E=       -0.000000000990 Rises=F Damp=F
 DIIS: error= 1.18D-06 at cycle  19 NSaved=  19.
 NSaved=19 IEnMin=19 EnMin= -345.257508266247     IErMin=19 ErrMin= 1.18D-06
 ErrMax= 1.18D-06 EMaxC= 1.00D-01 BMatC= 1.71D-10 BMatP= 5.45D-10
 IDIUse=1 WtCom= 1.00D+00 WtEn= 0.00D+00
 Coeff-Com: -0.340D-07 0.137D-05-0.127D-04 0.726D-04 0.794D-04-0.388D-03
 Coeff-Com:  0.141D-03 0.112D-02 0.153D-03-0.111D-02-0.246D-02 0.131D-01
 Coeff-Com:  0.135D-03-0.324D-01-0.305D-01 0.251D+00-0.152D+00-0.901D+00
 Coeff-Com:  0.185D+01
 Coeff:     -0.340D-07 0.137D-05-0.127D-04 0.726D-04 0.794D-04-0.388D-03
 Coeff:      0.141D-03 0.112D-02 0.153D-03-0.111D-02-0.246D-02 0.131D-01
 Coeff:      0.135D-03-0.324D-01-0.305D-01 0.251D+00-0.152D+00-0.901D+00
 Coeff:      0.185D+01
 Gap=     0.526 Goal=   None    Shift=    0.000
 Gap=     0.420 Goal=   None    Shift=    0.000
 RMSDP=3.37D-07 MaxDP=7.38D-06 DE=-9.90D-10 OVMax= 2.08D-05

 Cycle  20  Pass 1  IDiag  1:
 E= -345.257508266583     Delta-E=       -0.000000000336 Rises=F Damp=F
 DIIS: error= 4.91D-07 at cycle  20 NSaved=  20.
 NSaved=20 IEnMin=20 EnMin= -345.257508266583     IErMin=20 ErrMin= 4.91D-07
 ErrMax= 4.91D-07 EMaxC= 1.00D-01 BMatC= 3.40D-11 BMatP= 1.71D-10
 IDIUse=1 WtCom= 1.00D+00 WtEn= 0.00D+00
 Coeff-Com:  0.148D-06 0.152D-08-0.109D-04-0.257D-04 0.135D-03 0.178D-04
 Coeff-Com:  0.329D-03-0.121D-02 0.127D-02 0.144D-02-0.577D-02-0.244D-02
 Coeff-Com:  0.188D-01 0.187D-02-0.699D-01 0.568D-01 0.214D+00-0.319D+00
 Coeff-Com: -0.328D+00 0.143D+01
 Coeff:      0.148D-06 0.152D-08-0.109D-04-0.257D-04 0.135D-03 0.178D-04
 Coeff:      0.329D-03-0.121D-02 0.127D-02 0.144D-02-0.577D-02-0.244D-02
 Coeff:      0.188D-01 0.187D-02-0.699D-01 0.568D-01 0.214D+00-0.319D+00
 Coeff:     -0.328D+00 0.143D+01
 Gap=     0.526 Goal=   None    Shift=    0.000
 Gap=     0.420 Goal=   None    Shift=    0.000
 RMSDP=1.52D-07 MaxDP=5.50D-06 DE=-3.36D-10 OVMax= 1.20D-05

 Cycle  21  Pass 1  IDiag  1:
 E= -345.257508266653     Delta-E=       -0.000000000070 Rises=F Damp=F
 DIIS: error= 2.02D-07 at cycle  21 NSaved=  20.
 NSaved=20 IEnMin=20 EnMin= -345.257508266653     IErMin=20 ErrMin= 2.02D-07
 ErrMax= 2.02D-07 EMaxC= 1.00D-01 BMatC= 4.55D-12 BMatP= 3.40D-11
 IDIUse=1 WtCom= 1.00D+00 WtEn= 0.00D+00
 Coeff-Com:  0.172D-06 0.237D-05-0.612D-05-0.306D-04 0.690D-04-0.301D-05
 Coeff-Com: -0.115D-03-0.100D-03 0.226D-03 0.563D-03-0.246D-02 0.502D-03
 Coeff-Com:  0.373D-02 0.751D-02-0.422D-01 0.217D-01 0.159D+00-0.267D+00
 Coeff-Com: -0.193D+00 0.131D+01
 Coeff:      0.172D-06 0.237D-05-0.612D-05-0.306D-04 0.690D-04-0.301D-05
 Coeff:     -0.115D-03-0.100D-03 0.226D-03 0.563D-03-0.246D-02 0.502D-03
 Coeff:      0.373D-02 0.751D-02-0.422D-01 0.217D-01 0.159D+00-0.267D+00
 Coeff:     -0.193D+00 0.131D+01
 Gap=     0.526 Goal=   None    Shift=    0.000
 Gap=     0.420 Goal=   None    Shift=    0.000
 RMSDP=3.14D-08 MaxDP=9.06D-07 DE=-6.99D-11 OVMax= 1.52D-06

 Cycle  22  Pass 1  IDiag  1:
 E= -345.257508266661     Delta-E=       -0.000000000008 Rises=F Damp=F
 DIIS: error= 6.78D-08 at cycle  22 NSaved=  20.
 NSaved=20 IEnMin=20 EnMin= -345.257508266661     IErMin=20 ErrMin= 6.78D-08
 ErrMax= 6.78D-08 EMaxC= 1.00D-01 BMatC= 9.79D-13 BMatP= 4.55D-12
 IDIUse=1 WtCom= 1.00D+00 WtEn= 0.00D+00
 Coeff-Com:  0.859D-06 0.714D-05-0.178D-04-0.153D-04-0.507D-04 0.230D-03
 Coeff-Com: -0.208D-03-0.268D-03 0.930D-03 0.735D-03-0.307D-02-0.986D-03
 Coeff-Com:  0.114D-01-0.614D-02-0.352D-01 0.365D-01 0.814D-01-0.216D+00
 Coeff-Com: -0.145D+00 0.128D+01
 Coeff:      0.859D-06 0.714D-05-0.178D-04-0.153D-04-0.507D-04 0.230D-03
 Coeff:     -0.208D-03-0.268D-03 0.930D-03 0.735D-03-0.307D-02-0.986D-03
 Coeff:      0.114D-01-0.614D-02-0.352D-01 0.365D-01 0.814D-01-0.216D+00
 Coeff:     -0.145D+00 0.128D+01
 Gap=     0.526 Goal=   None    Shift=    0.000
 Gap=     0.420 Goal=   None    Shift=    0.000
 RMSDP=1.75D-08 MaxDP=4.82D-07 DE=-7.50D-12 OVMax= 1.39D-06

 Cycle  23  Pass 1  IDiag  1:
 E= -345.257508266659     Delta-E=        0.000000000001 Rises=F Damp=F
 DIIS: error= 3.42D-08 at cycle  23 NSaved=  20.
 NSaved=20 IEnMin=19 EnMin= -345.257508266661     IErMin=20 ErrMin= 3.42D-08
 ErrMax= 3.42D-08 EMaxC= 1.00D-01 BMatC= 2.42D-13 BMatP= 9.79D-13
 IDIUse=1 WtCom= 1.00D+00 WtEn= 0.00D+00
 Coeff-Com:  0.349D-06 0.393D-05-0.108D-04 0.697D-05-0.716D-05 0.299D-04
 Coeff-Com: -0.456D-04-0.166D-03 0.499D-03-0.183D-03-0.628D-03-0.163D-02
 Coeff-Com:  0.807D-02-0.335D-02-0.332D-01 0.454D-01 0.680D-01-0.269D+00
 Coeff-Com: -0.191D+00 0.138D+01
 Coeff:      0.349D-06 0.393D-05-0.108D-04 0.697D-05-0.716D-05 0.299D-04
 Coeff:     -0.456D-04-0.166D-03 0.499D-03-0.183D-03-0.628D-03-0.163D-02
 Coeff:      0.807D-02-0.335D-02-0.332D-01 0.454D-01 0.680D-01-0.269D+00
 Coeff:     -0.191D+00 0.138D+01
 Gap=     0.526 Goal=   None    Shift=    0.000
 Gap=     0.420 Goal=   None    Shift=    0.000
 RMSDP=7.86D-09 MaxDP=2.01D-07 DE= 1.48D-12 OVMax= 4.54D-07

 SCF Done:  E(UHF) =  -345.257508267     A.U. after   23 cycles
             Convg  =    0.7862D-08             -V/T =  2.0014
 <Sx>= 0.0000 <Sy>= 0.0000 <Sz>= 0.5000 <S**2>= 1.0025 S= 0.6191
 <L.S>= 0.000000000000E+00
 KE= 3.447763575855D+02 PE=-1.400148281032D+03 EE= 4.150230351485D+02
 Annihilation of the first spin contaminant:
 S**2 before annihilation     1.0025,   after     0.7768
 Leave Link  502 at Thu Apr 26 16:15:25 2018, MaxMem=  671088640 cpu:     649.3
 (Enter /shared/apps/gaussian/G09_LINUX_LINDA/g09/l801.exe)
 Range of M.O.s used for correlation:     1   127
 NBasis=   127 NAE=    29 NBE=    28 NFC=     0 NFV=     0
 NROrb=    127 NOA=    29 NOB=    28 NVA=    98 NVB=    99
 Leave Link  801 at Thu Apr 26 16:15:25 2018, MaxMem=  671088640 cpu:       0.5
 (Enter /shared/apps/gaussian/G09_LINUX_LINDA/g09/l1101.exe)
 Using compressed storage, NAtomX=    18.
 Will process  19 centers per pass.
 Leave Link 1101 at Thu Apr 26 16:15:26 2018, MaxMem=  671088640 cpu:       7.7
 (Enter /shared/apps/gaussian/G09_LINUX_LINDA/g09/l1102.exe)
 Symmetrizing basis deriv contribution to polar:
 IMax=3 JMax=2 DiffMx= 0.00D+00
 Leave Link 1102 at Thu Apr 26 16:15:26 2018, MaxMem=  671088640 cpu:       1.3
 (Enter /shared/apps/gaussian/G09_LINUX_LINDA/g09/l1110.exe)
 Forming Gx(P) for the SCF density, NAtomX=    18.
 Integral derivatives from FoFDir/FoFCou, PRISM(SPDF).
 Do as many integral derivatives as possible in FoFDir.
 G2DrvN: MDV=     671088392.
 G2DrvN: will do    19 centers at a time, making    1 passes doing MaxLOS=2.
 Calling FoFCou, ICntrl=  3107 FMM=F I1Cent=   0 AccDes= 0.00D+00.
 FoFCou: FMM=F IPFlag=           0 FMFlag=      100000 FMFlg1=           0
         NFxFlg=           0 DoJE=F BraDBF=F KetDBF=F FulRan=T
         Omega=  0.000000  0.000000  1.000000  0.000000  0.000000 ICntrl=    3107 IOpCl=  1
         NMat0=    1 NMatS0=    1 NMatT0=    0 NMatD0=    1 NMtDS0=    0 NMtDT0=    0
         I1Cent=           0 NGrid=           0.
 Symmetry not used in FoFCou.
 FoFDir/FoFCou used for L=0 through L=2.
 End of G2Drv Frequency-dependent properties file   721 does not exist.
 End of G2Drv Frequency-dependent properties file   722 does not exist.
 Leave Link 1110 at Thu Apr 26 16:15:30 2018, MaxMem=  671088640 cpu:      31.3
 (Enter /shared/apps/gaussian/G09_LINUX_LINDA/g09/l1002.exe)
 Minotr:  UHF open shell wavefunction.
          IDoAtm=111111111111111111
          Direct CPHF calculation.
          Differentiating once with respect to nuclear coordinates.
          Requested convergence is 1.0D-06 RMS, and 1.0D-05 maximum.
          Secondary convergence is 1.0D-12 RMS, and 1.0D-12 maximum.
          NewPWx=T KeepS1=F KeepF1=F KeepIn=T MapXYZ=F SortEE=F KeepMc=T.
          MDV=     671088456 using IRadAn=       2.
          Keep R1 and R2 ints in memory in canonical form, NReq=66894031.
 Symmetry not used in FoFDir.
 MinBra= 0 MaxBra= 2 Meth= 1.
 IRaf=       0 NMat=   1 IRICut=       1 DoRegI=T DoRafI=F ISym2E= 0 JSym2E=0.
          Solving linear equations simultaneously, MaxMat=       0.
          There are    57 degrees of freedom in the 1st order CPHF.  IDoFFX=5.
     51 vectors produced by pass  0 Test12= 9.85D-11 1.75D-07 XBig12= 1.20D-01 1.53D-01.
 AX will form    51 AO Fock derivatives at one time.
     51 vectors produced by pass  1 Test12= 9.85D-11 1.75D-07 XBig12= 9.55D-03 4.86D-02.
     51 vectors produced by pass  2 Test12= 9.85D-11 1.75D-07 XBig12= 6.03D-04 4.59D-03.
     51 vectors produced by pass  3 Test12= 9.85D-11 1.75D-07 XBig12= 1.89D-05 1.02D-03.
     51 vectors produced by pass  4 Test12= 9.85D-11 1.75D-07 XBig12= 4.77D-07 1.31D-04.
     31 vectors produced by pass  5 Test12= 9.85D-11 1.75D-07 XBig12= 6.23D-09 9.10D-06.
      8 vectors produced by pass  6 Test12= 9.85D-11 1.75D-07 XBig12= 8.97D-11 1.08D-06.
 Inverted reduced A of dimension   294 with in-core refinement.
 End of Minotr Frequency-dependent properties file   721 does not exist.
 End of Minotr Frequency-dependent properties file   722 does not exist.
 Leave Link 1002 at Thu Apr 26 16:15:49 2018, MaxMem=  671088640 cpu:     194.6
 (Enter /shared/apps/gaussian/G09_LINUX_LINDA/g09/l601.exe)
 Copying SCF densities to generalized density rwf, IOpCl= 1 IROHF=0.

 **********************************************************************

            Population analysis using the SCF density.

 **********************************************************************

 Orbital symmetries:
 Alpha Orbitals:
       Occupied  (A) (A) (A) (A) (A) (A) (A) (A) (A) (A) (A) (A)
                 (A) (A) (A) (A) (A) (A) (A) (A) (A) (A) (A) (A)
                 (A) (A) (A) (A) (A)
       Virtual   (A) (A) (A) (A) (A) (A) (A) (A) (A) (A) (A) (A)
                 (A) (A) (A) (A) (A) (A) (A) (A) (A) (A) (A) (A)
                 (A) (A) (A) (A) (A) (A) (A) (A) (A) (A) (A) (A)
                 (A) (A) (A) (A) (A) (A) (A) (A) (A) (A) (A) (A)
                 (A) (A) (A) (A) (A) (A) (A) (A) (A) (A) (A) (A)
                 (A) (A) (A) (A) (A) (A) (A) (A) (A) (A) (A) (A)
                 (A) (A) (A) (A) (A) (A) (A) (A) (A) (A) (A) (A)
                 (A) (A) (A) (A) (A) (A) (A) (A) (A) (A) (A) (A)
                 (A) (A)
 Beta  Orbitals:
       Occupied  (A) (A) (A) (A) (A) (A) (A) (A) (A) (A) (A) (A)
                 (A) (A) (A) (A) (A) (A) (A) (A) (A) (A) (A) (A)
                 (A) (A) (A) (A)
       Virtual   (A) (A) (A) (A) (A) (A) (A) (A) (A) (A) (A) (A)
                 (A) (A) (A) (A) (A) (A) (A) (A) (A) (A) (A) (A)
                 (A) (A) (A) (A) (A) (A) (A) (A) (A) (A) (A) (A)
                 (A) (A) (A) (A) (A) (A) (A) (A) (A) (A) (A) (A)
                 (A) (A) (A) (A) (A) (A) (A) (A) (A) (A) (A) (A)
                 (A) (A) (A) (A) (A) (A) (A) (A) (A) (A) (A) (A)
                 (A) (A) (A) (A) (A) (A) (A) (A) (A) (A) (A) (A)
                 (A) (A) (A) (A) (A) (A) (A) (A) (A) (A) (A) (A)
                 (A) (A) (A)
 The electronic state is 2-A.
 Alpha  occ. eigenvalues --  -20.64447 -20.62571 -11.24598 -11.24385 -11.22182
 Alpha  occ. eigenvalues --  -11.21981 -11.21861  -1.50777  -1.18188  -1.10988
 Alpha  occ. eigenvalues --   -1.01194  -0.94552  -0.88013  -0.73904  -0.72242
 Alpha  occ. eigenvalues --   -0.70398  -0.64411  -0.62190  -0.61086  -0.60551
 Alpha  occ. eigenvalues --   -0.55430  -0.54386  -0.53230  -0.51636  -0.51128
 Alpha  occ. eigenvalues --   -0.48450  -0.48093  -0.43733  -0.33255
 Alpha virt. eigenvalues --    0.19378   0.22534   0.23436   0.26769   0.27170
 Alpha virt. eigenvalues --    0.29792   0.31727   0.32253   0.33384   0.33944
 Alpha virt. eigenvalues --    0.36010   0.38511   0.39456   0.42684   0.44907
 Alpha virt. eigenvalues --    0.50581   0.59490   0.68177   0.71063   0.74211
 Alpha virt. eigenvalues --    0.76144   0.78073   0.79549   0.83382   0.85540
 Alpha virt. eigenvalues --    0.93450   0.95065   0.96417   0.98287   0.99806
 Alpha virt. eigenvalues --    1.03159   1.04454   1.07241   1.07914   1.09789
 Alpha virt. eigenvalues --    1.14137   1.14767   1.16720   1.17504   1.18060
 Alpha virt. eigenvalues --    1.20563   1.21999   1.22127   1.24846   1.26991
 Alpha virt. eigenvalues --    1.27455   1.29652   1.31137   1.37083   1.40604
 Alpha virt. eigenvalues --    1.44339   1.50079   1.57304   1.61364   1.67407
 Alpha virt. eigenvalues --    1.69147   1.71993   1.78480   1.80606   1.81151
 Alpha virt. eigenvalues --    1.89303   1.92202   2.04695   2.10647   2.14417
 Alpha virt. eigenvalues --    2.15478   2.16988   2.18725   2.20282   2.32007
 Alpha virt. eigenvalues --    2.34853   2.36410   2.42840   2.47512   2.48160
 Alpha virt. eigenvalues --    2.54829   2.57282   2.63204   2.68546   2.75003
 Alpha virt. eigenvalues --    2.75608   2.76131   2.77206   2.82507   2.85206
 Alpha virt. eigenvalues --    2.86939   2.88336   3.01674   3.24377   3.29540
 Alpha virt. eigenvalues --    3.40371   3.94396   4.18019   4.53588   4.68736
 Alpha virt. eigenvalues --    4.71819   4.74596   4.96126
  Beta  occ. eigenvalues --  -20.62507 -20.61579 -11.23464 -11.23144 -11.22800
  Beta  occ. eigenvalues --  -11.22166 -11.22040  -1.47085  -1.12581  -1.09448
  Beta  occ. eigenvalues --   -0.99445  -0.94601  -0.86073  -0.71584  -0.71161
  Beta  occ. eigenvalues --   -0.63967  -0.63170  -0.61032  -0.58789  -0.58271
  Beta  occ. eigenvalues --   -0.54819  -0.53845  -0.53014  -0.50970  -0.48160
  Beta  occ. eigenvalues --   -0.46610  -0.45751  -0.34648
  Beta virt. eigenvalues --    0.07390   0.20933   0.22720   0.23483   0.26928
  Beta virt. eigenvalues --    0.27335   0.29957   0.32199   0.33436   0.34150
  Beta virt. eigenvalues --    0.35773   0.36277   0.39047   0.40464   0.43582
  Beta virt. eigenvalues --    0.48019   0.50892   0.59705   0.68412   0.71710
  Beta virt. eigenvalues --    0.73851   0.76962   0.79324   0.80084   0.85218
  Beta virt. eigenvalues --    0.87010   0.92723   0.96676   0.97730   1.00167
  Beta virt. eigenvalues --    1.00656   1.04410   1.04859   1.07596   1.08827
  Beta virt. eigenvalues --    1.10440   1.14081   1.14730   1.16986   1.17946
  Beta virt. eigenvalues --    1.18745   1.21256   1.22239   1.23079   1.24973
  Beta virt. eigenvalues --    1.27708   1.28569   1.30797   1.32095   1.38411
  Beta virt. eigenvalues --    1.40529   1.45587   1.52029   1.57816   1.62557
  Beta virt. eigenvalues --    1.69507   1.71279   1.73466   1.78760   1.81289
  Beta virt. eigenvalues --    1.81614   1.91434   1.94748   2.06697   2.11550
  Beta virt. eigenvalues --    2.15354   2.16506   2.18390   2.19693   2.21943
  Beta virt. eigenvalues --    2.32755   2.36346   2.37927   2.43450   2.48157
  Beta virt. eigenvalues --    2.49230   2.55573   2.57340   2.63107   2.68827
  Beta virt. eigenvalues --    2.75666   2.76375   2.76973   2.79872   2.82918
  Beta virt. eigenvalues --    2.86147   2.87626   2.89961   3.02495   3.24621
  Beta virt. eigenvalues --    3.30578   3.40560   3.95017   4.19672   4.54153
  Beta virt. eigenvalues --    4.69032   4.71555   4.75530   4.96671
          Condensed to atoms (all electrons):
              1          2          3          4          5          6
     1  O    8.305029   0.057288  -0.001354   0.000179  -0.058775   0.000000
     2  O    0.057288   8.153786   0.000594  -0.000005   0.002646   0.000000
     3  C   -0.001354   0.000594   5.027805   0.610657   0.349144  -0.043532
     4  C    0.000179  -0.000005   0.610657   4.951975  -0.048361   0.347634
     5  C   -0.058775   0.002646   0.349144  -0.048361   5.307559   0.003357
     6  C    0.000000   0.000000  -0.043532   0.347634   0.003357   5.101965
     7  C   -0.000012   0.000002  -0.043711   0.345780  -0.007630  -0.065852
     8  H   -0.028381   0.256699  -0.000016   0.000001  -0.000410   0.000000
     9  H    0.000038  -0.000001   0.393928  -0.038990  -0.039556  -0.005360
    10  H    0.042874  -0.028945  -0.030651  -0.003261   0.234766  -0.000044
    11  H   -0.000617   0.000916  -0.033450   0.002330   0.381591  -0.000076
    12  H   -0.001252   0.001890  -0.035690  -0.000161   0.385992   0.000033
    13  H    0.000000   0.000000   0.000209  -0.041616  -0.000077   0.388450
    14  H    0.000000   0.000000  -0.001035  -0.040809   0.000148   0.394829
    15  H    0.000000   0.000000  -0.000374  -0.042359  -0.000097   0.389381
    16  H    0.000136  -0.000009  -0.003176  -0.034943  -0.000634   0.003578
    17  H   -0.000005   0.000000   0.000566  -0.041129   0.000245  -0.002117
    18  H    0.000000   0.000000   0.000163  -0.041720   0.000177  -0.001690
              7          8          9         10         11         12
     1  O   -0.000012  -0.028381   0.000038   0.042874  -0.000617  -0.001252
     2  O    0.000002   0.256699  -0.000001  -0.028945   0.000916   0.001890
     3  C   -0.043711  -0.000016   0.393928  -0.030651  -0.033450  -0.035690
     4  C    0.345780   0.000001  -0.038990  -0.003261   0.002330  -0.000161
     5  C   -0.007630  -0.000410  -0.039556   0.234766   0.381591   0.385992
     6  C   -0.065852   0.000000  -0.005360  -0.000044  -0.000076   0.000033
     7  C    5.107671   0.000000   0.003532   0.000151   0.000139  -0.000174
     8  H    0.000000   0.316092  -0.000001  -0.000043   0.000294  -0.000092
     9  H    0.003532  -0.000001   0.502480   0.000433  -0.003133   0.002590
    10  H    0.000151  -0.000043   0.000433   0.500903  -0.023682  -0.022733
    11  H    0.000139   0.000294  -0.003133  -0.023682   0.507031  -0.022228
    12  H   -0.000174  -0.000092   0.002590  -0.022733  -0.022228   0.480407
    13  H   -0.001384   0.000000   0.000148   0.000015  -0.000001  -0.000005
    14  H    0.003652   0.000000   0.003066  -0.000003  -0.000008   0.000005
    15  H   -0.000917   0.000000   0.000112  -0.000003   0.000005   0.000007
    16  H    0.395476   0.000001   0.000038  -0.000161   0.000071   0.000526
    17  H    0.391511   0.000000  -0.000107   0.000091  -0.000008  -0.000115
    18  H    0.388427   0.000000  -0.000112  -0.000029   0.000008   0.000082
             13         14         15         16         17         18
     1  O    0.000000   0.000000   0.000000   0.000136  -0.000005   0.000000
     2  O    0.000000   0.000000   0.000000  -0.000009   0.000000   0.000000
     3  C    0.000209  -0.001035  -0.000374  -0.003176   0.000566   0.000163
     4  C   -0.041616  -0.040809  -0.042359  -0.034943  -0.041129  -0.041720
     5  C   -0.000077   0.000148  -0.000097  -0.000634   0.000245   0.000177
     6  C    0.388450   0.394829   0.389381   0.003578  -0.002117  -0.001690
     7  C   -0.001384   0.003652  -0.000917   0.395476   0.391511   0.388427
     8  H    0.000000   0.000000   0.000000   0.000001   0.000000   0.000000
     9  H    0.000148   0.003066   0.000112   0.000038  -0.000107  -0.000112
    10  H    0.000015  -0.000003  -0.000003  -0.000161   0.000091  -0.000029
    11  H   -0.000001  -0.000008   0.000005   0.000071  -0.000008   0.000008
    12  H   -0.000005   0.000005   0.000007   0.000526  -0.000115   0.000082
    13  H    0.539546  -0.024628  -0.034512  -0.000063   0.002654  -0.000362
    14  H   -0.024628   0.516749  -0.024920  -0.000091  -0.000030  -0.000060
    15  H   -0.034512  -0.024920   0.542711  -0.000040  -0.000393   0.002561
    16  H   -0.000063  -0.000091  -0.000040   0.505295  -0.024959  -0.024986
    17  H    0.002654  -0.000030  -0.000393  -0.024959   0.530660  -0.033084
    18  H   -0.000362  -0.000060   0.002561  -0.024986  -0.033084   0.540608
 Mulliken atomic charges:
              1
     1  O   -0.315149
     2  O   -0.444860
     3  C   -0.190079
     4  C    0.074798
     5  C   -0.510086
     6  C   -0.510555
     7  C   -0.516660
     8  H    0.455857
     9  H    0.180895
    10  H    0.330321
    11  H    0.190818
    12  H    0.210920
    13  H    0.171625
    14  H    0.173136
    15  H    0.168839
    16  H    0.183942
    17  H    0.176219
    18  H    0.170018
 Sum of Mulliken atomic charges =   0.00000
 Mulliken charges with hydrogens summed into heavy atoms:
              1
     1  O    0.015172
     2  O    0.010997
     3  C   -0.009185
     4  C    0.074798
     5  C   -0.108348
     6  C    0.003046
     7  C    0.013520
 Sum of Mulliken charges with hydrogens summed into heavy atoms =   0.00000
          Atomic-Atomic Spin Densities.
              1          2          3          4          5          6
     1  O    0.782517  -0.049871   0.003996   0.000276  -0.070346   0.000001
     2  O   -0.049871   0.016084  -0.000224  -0.000004   0.007158   0.000000
     3  C    0.003996  -0.000224  -0.726950   0.034834  -0.037026  -0.000633
     4  C    0.000276  -0.000004   0.034834   0.833719  -0.013287  -0.023834
     5  C   -0.070346   0.007158  -0.037026  -0.013287   0.788370   0.000012
     6  C    0.000001   0.000000  -0.000633  -0.023834   0.000012  -0.092492
     7  C   -0.000017   0.000001  -0.000195  -0.027855   0.000385   0.002250
     8  H    0.000062  -0.000315  -0.000001   0.000000  -0.000022   0.000000
     9  H   -0.000035   0.000001   0.007161  -0.002112  -0.001478   0.000184
    10  H   -0.077795   0.018818   0.015862   0.000170   0.066768   0.000018
    11  H    0.003324  -0.000906   0.004641  -0.000115  -0.021979   0.000009
    12  H    0.003344  -0.001281   0.004149  -0.000533  -0.020921   0.000004
    13  H    0.000000   0.000000   0.000196  -0.013346   0.000027   0.006788
    14  H    0.000000   0.000000   0.000970  -0.002229  -0.000003   0.003545
    15  H    0.000000   0.000000  -0.000178  -0.012686   0.000021   0.007839
    16  H    0.000001   0.000001   0.000872  -0.002131  -0.000486  -0.000075
    17  H   -0.000008   0.000000   0.000030  -0.011734   0.000153   0.000359
    18  H    0.000001   0.000000  -0.000034  -0.012407   0.000102   0.000599
              7          8          9         10         11         12
     1  O   -0.000017   0.000062  -0.000035  -0.077795   0.003324   0.003344
     2  O    0.000001  -0.000315   0.000001   0.018818  -0.000906  -0.001281
     3  C   -0.000195  -0.000001   0.007161   0.015862   0.004641   0.004149
     4  C   -0.027855   0.000000  -0.002112   0.000170  -0.000115  -0.000533
     5  C    0.000385  -0.000022  -0.001478   0.066768  -0.021979  -0.020921
     6  C    0.002250   0.000000   0.000184   0.000018   0.000009   0.000004
     7  C   -0.086214   0.000000   0.000040  -0.000028  -0.000022   0.000312
     8  H    0.000000  -0.001258   0.000000   0.000212  -0.000033  -0.000005
     9  H    0.000040   0.000000   0.042201  -0.000285  -0.000193  -0.000042
    10  H   -0.000028   0.000212  -0.000285  -0.256106   0.009566   0.010684
    11  H   -0.000022  -0.000033  -0.000193   0.009566  -0.039647   0.002119
    12  H    0.000312  -0.000005  -0.000042   0.010684   0.002119  -0.041983
    13  H    0.000621   0.000000   0.000052  -0.000005  -0.000001  -0.000001
    14  H   -0.000063   0.000000  -0.000075   0.000001   0.000001   0.000000
    15  H    0.000451   0.000000  -0.000039   0.000001   0.000001   0.000001
    16  H    0.003452   0.000000   0.000004  -0.000032   0.000014   0.000159
    17  H    0.007827   0.000000   0.000004  -0.000024  -0.000002  -0.000026
    18  H    0.007082   0.000000  -0.000011   0.000007   0.000004   0.000023
             13         14         15         16         17         18
     1  O    0.000000   0.000000   0.000000   0.000001  -0.000008   0.000001
     2  O    0.000000   0.000000   0.000000   0.000001   0.000000   0.000000
     3  C    0.000196   0.000970  -0.000178   0.000872   0.000030  -0.000034
     4  C   -0.013346  -0.002229  -0.012686  -0.002131  -0.011734  -0.012407
     5  C    0.000027  -0.000003   0.000021  -0.000486   0.000153   0.000102
     6  C    0.006788   0.003545   0.007839  -0.000075   0.000359   0.000599
     7  C    0.000621  -0.000063   0.000451   0.003452   0.007827   0.007082
     8  H    0.000000   0.000000   0.000000   0.000000   0.000000   0.000000
     9  H    0.000052  -0.000075  -0.000039   0.000004   0.000004  -0.000011
    10  H   -0.000005   0.000001   0.000001  -0.000032  -0.000024   0.000007
    11  H   -0.000001   0.000001   0.000001   0.000014  -0.000002   0.000004
    12  H   -0.000001   0.000000   0.000001   0.000159  -0.000026   0.000023
    13  H    0.040436  -0.000792  -0.008187  -0.000002   0.001662  -0.000622
[...]
    15  H   -0.000915   0.000000   0.000113  -0.000003   0.000005   0.000007
    16  H    0.395465   0.000001   0.000038  -0.000155   0.000071   0.000517
    17  H    0.391513   0.000000  -0.000107   0.000092  -0.000008  -0.000117
    18  H    0.388418   0.000000  -0.000112  -0.000030   0.000008   0.000085
             13         14         15         16         17         18
     1  O    0.000000   0.000000   0.000000   0.000134  -0.000005   0.000000
     2  O    0.000000   0.000000   0.000000  -0.000009   0.000000   0.000000
     3  C    0.000198  -0.001030  -0.000373  -0.003175   0.000564   0.000160
     4  C   -0.041592  -0.040801  -0.042367  -0.034941  -0.041117  -0.041719
     5  C   -0.000078   0.000148  -0.000097  -0.000629   0.000242   0.000179
     6  C    0.388443   0.394826   0.389367   0.003579  -0.002116  -0.001687
     7  C   -0.001384   0.003652  -0.000915   0.395465   0.391513   0.388418
     8  H    0.000000   0.000000   0.000000   0.000001   0.000000   0.000000
     9  H    0.000147   0.003069   0.000113   0.000038  -0.000107  -0.000112
    10  H    0.000015  -0.000003  -0.000003  -0.000155   0.000092  -0.000030
    11  H   -0.000001  -0.000008   0.000005   0.000071  -0.000008   0.000008
    12  H   -0.000005   0.000005   0.000007   0.000517  -0.000117   0.000085
    13  H    0.539561  -0.024623  -0.034518  -0.000063   0.002652  -0.000362
    14  H   -0.024623   0.516719  -0.024923  -0.000091  -0.000030  -0.000060
    15  H   -0.034518  -0.024923   0.542773  -0.000040  -0.000393   0.002562
    16  H   -0.000063  -0.000091  -0.000040   0.505457  -0.024975  -0.024988
    17  H    0.002652  -0.000030  -0.000393  -0.024975   0.530691  -0.033086
    18  H   -0.000362  -0.000060   0.002562  -0.024988  -0.033086   0.540623
 Mulliken atomic charges:
              1
     1  O   -0.313305
     2  O   -0.445481
     3  C   -0.189240
     4  C    0.074428
     5  C   -0.511714
     6  C   -0.510566
     7  C   -0.516565
     8  H    0.456033
     9  H    0.180900
    10  H    0.330204
    11  H    0.190669
    12  H    0.211061
    13  H    0.171611
    14  H    0.173151
    15  H    0.168803
    16  H    0.183804
    17  H    0.176200
    18  H    0.170008
 Sum of Mulliken atomic charges =   0.00000
 Mulliken charges with hydrogens summed into heavy atoms:
              1
     1  O    0.016899
     2  O    0.010552
     3  C   -0.008339
     4  C    0.074428
     5  C   -0.109985
     6  C    0.002998
     7  C    0.013447
 Sum of Mulliken charges with hydrogens summed into heavy atoms =   0.00000
          Atomic-Atomic Spin Densities.
              1          2          3          4          5          6
     1  O    0.788068  -0.050273   0.003931   0.000271  -0.069969   0.000001
     2  O   -0.050273   0.015438  -0.000225  -0.000004   0.007149   0.000000
     3  C    0.003931  -0.000225  -0.726284   0.034843  -0.036888  -0.000602
     4  C    0.000271  -0.000004   0.034843   0.831845  -0.013158  -0.023791
     5  C   -0.069969   0.007149  -0.036888  -0.013158   0.784103   0.000016
     6  C    0.000001   0.000000  -0.000602  -0.023791   0.000016  -0.092311
     7  C   -0.000016   0.000001  -0.000188  -0.027760   0.000376   0.002243
     8  H    0.000074  -0.000304   0.000000   0.000000  -0.000023   0.000000
     9  H   -0.000034   0.000001   0.007168  -0.002086  -0.001531   0.000184
    10  H   -0.078952   0.019638   0.015721   0.000197   0.067710   0.000017
    11  H    0.003334  -0.000916   0.004519  -0.000124  -0.021975   0.000008
    12  H    0.003445  -0.001342   0.004144  -0.000570  -0.021471   0.000004
    13  H    0.000000   0.000000   0.000182  -0.013309   0.000026   0.006785
    14  H    0.000000   0.000000   0.000970  -0.002226  -0.000003   0.003536
    15  H    0.000000   0.000000  -0.000170  -0.012664   0.000022   0.007805
    16  H    0.000000   0.000001   0.000871  -0.002130  -0.000482  -0.000076
    17  H   -0.000008   0.000000   0.000023  -0.011703   0.000152   0.000362
    18  H    0.000001   0.000000  -0.000030  -0.012389   0.000102   0.000594
              7          8          9         10         11         12
     1  O   -0.000016   0.000074  -0.000034  -0.078952   0.003334   0.003445
     2  O    0.000001  -0.000304   0.000001   0.019638  -0.000916  -0.001342
     3  C   -0.000188   0.000000   0.007168   0.015721   0.004519   0.004144
     4  C   -0.027760   0.000000  -0.002086   0.000197  -0.000124  -0.000570
     5  C    0.000376  -0.000023  -0.001531   0.067710  -0.021975  -0.021471
     6  C    0.002243   0.000000   0.000184   0.000017   0.000008   0.000004
     7  C   -0.086058   0.000000   0.000041  -0.000031  -0.000022   0.000313
     8  H    0.000000  -0.001225   0.000000   0.000181  -0.000032  -0.000004
     9  H    0.000041   0.000000   0.042159  -0.000268  -0.000189  -0.000043
    10  H   -0.000031   0.000181  -0.000268  -0.257806   0.009810   0.011310
    11  H   -0.000022  -0.000032  -0.000189   0.009810  -0.039659   0.002106
    12  H    0.000313  -0.000004  -0.000043   0.011310   0.002106  -0.041805
    13  H    0.000618   0.000000   0.000051  -0.000005  -0.000001  -0.000001
    14  H   -0.000063   0.000000  -0.000073   0.000001   0.000001   0.000000
    15  H    0.000450   0.000000  -0.000038   0.000001   0.000001   0.000001
    16  H    0.003448   0.000000   0.000005  -0.000032   0.000013   0.000156
    17  H    0.007803   0.000000   0.000004  -0.000024  -0.000002  -0.000028
    18  H    0.007061   0.000000  -0.000011   0.000007   0.000004   0.000025
             13         14         15         16         17         18
     1  O    0.000000   0.000000   0.000000   0.000000  -0.000008   0.000001
     2  O    0.000000   0.000000   0.000000   0.000001   0.000000   0.000000
     3  C    0.000182   0.000970  -0.000170   0.000871   0.000023  -0.000030
     4  C   -0.013309  -0.002226  -0.012664  -0.002130  -0.011703  -0.012389
     5  C    0.000026  -0.000003   0.000022  -0.000482   0.000152   0.000102
     6  C    0.006785   0.003536   0.007805  -0.000076   0.000362   0.000594
     7  C    0.000618  -0.000063   0.000450   0.003448   0.007803   0.007061
     8  H    0.000000   0.000000   0.000000   0.000000   0.000000   0.000000
     9  H    0.000051  -0.000073  -0.000038   0.000005   0.000004  -0.000011
    10  H   -0.000005   0.000001   0.000001  -0.000032  -0.000024   0.000007
    11  H   -0.000001   0.000001   0.000001   0.000013  -0.000002   0.000004
    12  H   -0.000001   0.000000   0.000001   0.000156  -0.000028   0.000025
    13  H    0.040323  -0.000787  -0.008171  -0.000002   0.001659  -0.000621
    14  H   -0.000787   0.003322  -0.000621   0.000000  -0.000003  -0.000001
    15  H   -0.008171  -0.000621   0.036664   0.000001  -0.000647   0.001588
    16  H   -0.000002   0.000000   0.000001   0.003489  -0.000611  -0.000743
    17  H    0.001659  -0.000003  -0.000647  -0.000611   0.032511  -0.007002
    18  H   -0.000621  -0.000001   0.001588  -0.000743  -0.007002   0.035997
 Mulliken atomic spin densities:
              1
     1  O    0.599873
     2  O   -0.010836
     3  C   -0.692014
     4  C    0.745240
     5  C    0.694157
     6  C   -0.095224
     7  C   -0.091784
     8  H   -0.001334
     9  H    0.045339
    10  H   -0.212525
    11  H   -0.043126
    12  H   -0.043761
    13  H    0.026748
    14  H    0.004052
    15  H    0.024220
    16  H    0.003908
    17  H    0.022486
    18  H    0.024582
 Sum of Mulliken atomic spin densities =   1.00000
 Electronic spatial extent (au):  <R**2>=           1352.3833
 Charge=              0.0000 electrons
 Dipole moment (field-independent basis, Debye):
    X=              0.9061    Y=             -1.5550    Z=             -1.1994  Tot=              2.1628
 Quadrupole moment (field-independent basis, Debye-Ang):
   XX=            -39.5688   YY=            -43.1170   ZZ=            -46.2796
   XY=              6.5617   XZ=              3.8340   YZ=             -0.0037
 Traceless Quadrupole moment (field-independent basis, Debye-Ang):
   XX=              3.4197   YY=             -0.1285   ZZ=             -3.2912
   XY=              6.5617   XZ=              3.8340   YZ=             -0.0037
 Octapole moment (field-independent basis, Debye-Ang**2):
  XXX=            -52.3307  YYY=             -2.7287  ZZZ=              3.2176  XYY=             -7.3647
  XXY=            -20.5775  XXZ=             -5.3566  XZZ=             -6.7305  YZZ=              2.0589
  YYZ=              0.6209  XYZ=             -1.7255
 Hexadecapole moment (field-independent basis, Debye-Ang**3):
 XXXX=          -1126.3063 YYYY=           -239.5707 ZZZZ=           -142.9271 XXXY=             84.7469
 XXXZ=             10.1170 YYYX=             -3.3819 YYYZ=              0.7534 ZZZX=             -1.3400
 ZZZY=             -0.0121 XXYY=           -258.9097 XXZZ=           -247.7609 YYZZ=            -63.6085
 XXYZ=              0.7924 YYXZ=              1.4524 ZZXY=              2.6087
 N-N= 2.951058802801D+02 E-N=-2.091057491040D+03  KE= 5.157724224207D+02
                          Isotropic Fermi Contact Couplings
        Atom                 a.u.       MegaHertz       Gauss      10(-4) cm-1
     1  O(17)              0.12301     -74.56753     -26.60755     -24.87305
     2  O(17)              0.02183     -13.23085      -4.72110      -4.41334
     3  C(13)             -0.12459    -140.06409     -49.97835     -46.72035
     4  C(13)              0.13230     148.72576      53.06905      49.60957
     5  C(13)              0.16797     188.82591      67.37778      62.98555
     6  C(13)             -0.03163     -35.55883     -12.68827     -11.86115
     7  C(13)             -0.03023     -33.98497     -12.12668     -11.33616
     8  H(1)              -0.00073      -3.27149      -1.16735      -1.09125
     9  H(1)               0.01397      62.45341      22.28493      20.83222
    10  H(1)              -0.08534    -381.44089    -136.10759    -127.23499
    11  H(1)              -0.01427     -63.77048     -22.75489     -21.27154
    12  H(1)              -0.01488     -66.50902     -23.73207     -22.18502
    13  H(1)               0.01182      52.83518      18.85291      17.62392
    14  H(1)               0.00138       6.15713       2.19702       2.05380
    15  H(1)               0.01081      48.33208      17.24609      16.12185
    16  H(1)               0.00133       5.94870       2.12264       1.98427
    17  H(1)               0.01011      45.17170      16.11839      15.06766
    18  H(1)               0.01100      49.16941      17.54487      16.40115
 --------------------------------------------------------
       Center         ----  Spin Dipole Couplings  ----
                      3XX-RR        3YY-RR        3ZZ-RR
 --------------------------------------------------------
     1   Atom        0.213967     -0.963822      0.749855
     2   Atom        0.092905     -0.023562     -0.069344
     3   Atom        0.169522      0.214792     -0.384314
     4   Atom       -0.182412     -0.292379      0.474791
     5   Atom       -0.012429     -0.273863      0.286292
     6   Atom       -0.006497      0.005104      0.001393
     7   Atom        0.006242     -0.008494      0.002252
     8   Atom        0.014008     -0.008930     -0.005078
     9   Atom        0.028868     -0.024463     -0.004405
    10   Atom        0.066299     -0.104849      0.038550
    11   Atom       -0.014477      0.018431     -0.003954
    12   Atom       -0.025582      0.021542      0.004040
    13   Atom        0.005388     -0.004163     -0.001225
    14   Atom        0.000277      0.000615     -0.000892
    15   Atom        0.007710     -0.003419     -0.004291
    16   Atom       -0.001254      0.004346     -0.003092
    17   Atom       -0.001619      0.007700     -0.006081
    18   Atom       -0.003110      0.006564     -0.003454
 --------------------------------------------------------
                        XY            XZ            YZ
 --------------------------------------------------------
     1   Atom       -0.653334     -1.622224      0.696636
     2   Atom       -0.054978     -0.276330      0.151586
     3   Atom        0.042426      0.240529     -0.082550
     4   Atom       -0.048722     -0.296670      0.097566
     5   Atom       -0.079285     -0.412676      0.122967
     6   Atom       -0.001366     -0.004174     -0.000940
     7   Atom       -0.001571      0.000600      0.000372
     8   Atom        0.006300      0.010200      0.007142
     9   Atom        0.015198      0.008883      0.011137
    10   Atom       -0.068390     -0.179479      0.063127
    11   Atom        0.028112     -0.003645      0.030852
    12   Atom       -0.009681     -0.011106     -0.028970
    13   Atom       -0.001579      0.005509     -0.002445
    14   Atom       -0.005896      0.000861     -0.002451
    15   Atom       -0.003052      0.002840      0.000516
    16   Atom       -0.000395     -0.000834     -0.002453
    17   Atom        0.001041     -0.000262      0.000977
    18   Atom        0.002138      0.000536     -0.003419
 --------------------------------------------------------


 ---------------------------------------------------------------------------------
              Anisotropic Spin Dipole Couplings in Principal Axis System
 ---------------------------------------------------------------------------------

       Atom             a.u.   MegaHertz   Gauss  10(-4) cm-1        Axes

              Baa    -1.2567    90.935    32.448    30.333  0.4905  0.8662  0.0958
     1 O(17)  Bbb    -1.1402    82.504    29.439    27.520  0.6072 -0.4185  0.6754
              Bcc     2.3969  -173.438   -61.887   -57.853 -0.6251  0.2731  0.7312
 
              Baa    -0.3070    22.217     7.928     7.411  0.5059 -0.3284  0.7976
     2 O(17)  Bbb    -0.0431     3.118     1.112     1.040  0.4757  0.8776  0.0595
              Bcc     0.3501   -25.335    -9.040    -8.451  0.7195 -0.3493 -0.6002
 
              Baa    -0.4863   -65.258   -23.286   -21.768 -0.3488  0.1304  0.9281
     3 C(13)  Bbb     0.2237    30.015    10.710    10.012 -0.2261  0.9493 -0.2184
              Bcc     0.2626    35.244    12.576    11.756  0.9095  0.2860  0.3016
 
              Baa    -0.3124   -41.915   -14.956   -13.981  0.5475  0.8304  0.1034
     4 C(13)  Bbb    -0.2897   -38.878   -13.873   -12.968  0.7565 -0.5440  0.3630
              Bcc     0.6021    80.793    28.829    26.950 -0.3577  0.1205  0.9260
 
              Baa    -0.3061   -41.069   -14.655   -13.699  0.6063 -0.5810  0.5430
     5 C(13)  Bbb    -0.2942   -39.480   -14.087   -13.169  0.5590  0.7970  0.2286
              Bcc     0.6003    80.549    28.742    26.868 -0.5656  0.1650  0.8080
 
              Baa    -0.0085    -1.139    -0.407    -0.380  0.9106  0.1188  0.3959
     6 C(13)  Bbb     0.0031     0.422     0.151     0.141 -0.4104  0.1456  0.9002
              Bcc     0.0053     0.717     0.256     0.239 -0.0493  0.9822 -0.1814
 
              Baa    -0.0087    -1.164    -0.415    -0.388  0.1062  0.9936 -0.0396
     7 C(13)  Bbb     0.0022     0.295     0.105     0.098 -0.1263  0.0530  0.9906
              Bcc     0.0065     0.870     0.310     0.290  0.9863 -0.1002  0.1311
 
              Baa    -0.0145    -7.725    -2.756    -2.577  0.0633  0.7604 -0.6464
     8 H(1)   Bbb    -0.0065    -3.462    -1.235    -1.155 -0.4982  0.5853  0.6397
              Bcc     0.0210    11.186     3.992     3.731  0.8647  0.2816  0.4159
 
              Baa    -0.0314   -16.743    -5.974    -5.585 -0.1867  0.9282 -0.3218
     9 H(1)   Bbb    -0.0048    -2.575    -0.919    -0.859 -0.3485  0.2436  0.9051
              Bcc     0.0362    19.319     6.893     6.444  0.9185  0.2811  0.2780
 
              Baa    -0.1288   -68.743   -24.529   -22.930  0.2515  0.9633 -0.0936
    10 H(1)   Bbb    -0.1276   -68.069   -24.289   -22.705  0.6570 -0.0989  0.7474
              Bcc     0.2564   136.812    48.818    45.635  0.7107 -0.2495 -0.6578
 
              Baa    -0.0420   -22.427    -8.003    -7.481  0.6434 -0.5635  0.5181
    11 H(1)   Bbb    -0.0057    -3.031    -1.081    -1.011 -0.6848 -0.1211  0.7186
              Bcc     0.0477    25.458     9.084     8.492  0.3422  0.8172  0.4638
 
              Baa    -0.0368   -19.621    -7.001    -6.545  0.7958  0.3702  0.4793
    12 H(1)   Bbb    -0.0063    -3.361    -1.199    -1.121 -0.6054  0.4631  0.6474
              Bcc     0.0431    22.982     8.201     7.666 -0.0177  0.8053 -0.5926
 
              Baa    -0.0058    -3.117    -1.112    -1.040 -0.2116  0.7365  0.6425
    13 H(1)   Bbb    -0.0032    -1.694    -0.604    -0.565  0.4931  0.6480 -0.5805
              Bcc     0.0090     4.811     1.717     1.605  0.8439 -0.1939  0.5003
 
              Baa    -0.0057    -3.054    -1.090    -1.019  0.6621  0.7093  0.2418
    14 H(1)   Bbb    -0.0013    -0.709    -0.253    -0.236 -0.3742  0.0334  0.9267
              Bcc     0.0071     3.763     1.343     1.255 -0.6493  0.7041 -0.2875
 
              Baa    -0.0057    -3.055    -1.090    -1.019 -0.2911 -0.5587  0.7766
    15 H(1)   Bbb    -0.0033    -1.754    -0.626    -0.585  0.0668  0.7979  0.5990
              Bcc     0.0090     4.809     1.716     1.604  0.9544 -0.2262  0.1949
 
              Baa    -0.0041    -2.198    -0.784    -0.733  0.3036  0.2783  0.9113
    16 H(1)   Bbb    -0.0010    -0.516    -0.184    -0.172  0.9525 -0.0663 -0.2971
              Bcc     0.0051     2.714     0.968     0.905 -0.0223  0.9582 -0.2852
 
              Baa    -0.0062    -3.295    -1.176    -1.099  0.0745 -0.0756  0.9943
    17 H(1)   Bbb    -0.0017    -0.909    -0.324    -0.303  0.9915 -0.1013 -0.0820
              Bcc     0.0079     4.204     1.500     1.402  0.1069  0.9920  0.0674
 
              Baa    -0.0052    -2.786    -0.994    -0.929 -0.5272  0.3235  0.7857
    18 H(1)   Bbb    -0.0027    -1.453    -0.518    -0.485  0.8327  0.0122  0.5537
              Bcc     0.0079     4.239     1.512     1.414  0.1696  0.9461 -0.2758
 

 ---------------------------------------------------------------------------------

 No NMR shielding tensors so no spin-rotation constants.
 Leave Link  601 at Thu Apr 26 16:17:03 2018, MaxMem=  671088640 cpu:      24.0
 (Enter /shared/apps/gaussian/G09_LINUX_LINDA/g09/l9999.exe)
 1\1\GINC-COMPUTE-3-045\FTS\UHF\6-31G(d)\C5H11O2(2)\ROOT\26-Apr-2018\0\
 \#p hf/6-31g* opt=(ts,calcfc,noeigentest,ModRedun)\\Gaussian input pre
 pared by ASE\\0,2\O,-3.1668700073,0.1708626607,-0.7505687466\O,-3.8863
 727486,1.3133346049,-0.5229368425\C,0.2295197688,0.3652120341,-1.09002
 05158\C,0.9175774348,-0.1336025439,-0.0290478628\C,-0.9058984558,1.276
 0405992,-1.0524531635\C,2.0635661868,-1.0908888612,-0.2375742588\C,0.6
 218654899,0.2007282106,1.4106268666\H,-4.282024507,1.4992158577,-1.366
 4928788\H,0.516691499,0.0197901499,-2.0697586483\H,-2.0139370098,0.594
 0594053,-0.9395815095\H,-1.0881120871,1.8131459093,-1.9724383102\H,-1.
 0134932156,1.9096170101,-0.1866023692\H,1.8699217735,-2.0394374996,0.2
 583484008\H,2.2397150449,-1.2903241553,-1.2880592009\H,2.9821584048,-0
 .694019474,0.1891328087\H,-0.2336688304,0.8501772285,1.5318843679\H,0.
 4257824959,-0.7086887584,1.9732513903\H,1.4806195537,0.6804865035,1.87
 51691685\\Version=EM64L-G09RevB.01\State=2-A\HF=-345.2575618\S2=1.0022
 54\S2-1=0.\S2A=0.776626\RMSD=7.070e-09\RMSF=2.077e-04\Dipole=0.5750448
 ,0.3177004,-0.5407497\Quadrupole=-1.0493922,-0.5904429,1.6398351,-3.24
 04934,4.6687146,-1.9461807\PG=C01 [X(C5H11O2)]\\@


 I DO NOT KNOW WHAT I MAY APPEAR TO THE WORLD; BUT TO MYSELF
 I SEEM TO HAVE BEEN ONLY LIKE A BOY PLAYING ON THE SEASHORE,
 AND DIVERTING MYSELF IN NOW AND THEN FINDING A SMOOTHER PEBBLE
 OR A PRETTIER SHELL THAN ORDINARY, WHILST THE GREAT OCEAN OF
 TRUTH LAY ALL UNDISCOVERED BEFORE ME.
                                          -- NEWTON (1642-1726)
 Job cpu time:  0 days  0 hours 27 minutes 28.9 seconds.
 File lengths (MBytes):  RWF=    136 Int=      0 D2E=      0 Chk=      3 Scr=      1
 Normal termination of Gaussian 09 at Thu Apr 26 16:17:03 2018.
