 Entering Gaussian System, Link 0=g09
 Input=/home/harms.n/Code/AutoTST/ipython_notebooks/test.com
 Output=/home/harms.n/Code/AutoTST/ipython_notebooks/test.log
 Initial command:
 /shared/apps/gaussian/G09_LINUX_LINDA/g09/l1.exe /home/harms.n/Code/AutoTST/ipython_notebooks/Gau-10822.inp -scrdir=/home/harms.n/Code/AutoTST/ipython_notebooks/
 Entering Link 1 = /shared/apps/gaussian/G09_LINUX_LINDA/g09/l1.exe PID=     10823.
  
 Copyright (c) 1988,1990,1992,1993,1995,1998,2003,2009,2010,
            Gaussian, Inc.  All Rights Reserved.
  
 This is part of the Gaussian(R) 09 program.  It is based on
 the Gaussian(R) 03 system (copyright 2003, Gaussian, Inc.),
 the Gaussian(R) 98 system (copyright 1998, Gaussian, Inc.),
 the Gaussian(R) 94 system (copyright 1995, Gaussian, Inc.),
 the Gaussian 92(TM) system (copyright 1992, Gaussian, Inc.),
 the Gaussian 90(TM) system (copyright 1990, Gaussian, Inc.),
 the Gaussian 88(TM) system (copyright 1988, Gaussian, Inc.),
 the Gaussian 86(TM) system (copyright 1986, Carnegie Mellon
 University), and the Gaussian 82(TM) system (copyright 1983,
 Carnegie Mellon University). Gaussian is a federally registered
 trademark of Gaussian, Inc.
  
 This software contains proprietary and confidential information,
 including trade secrets, belonging to Gaussian, Inc.
  
 This software is provided under written license and may be
 used, copied, transmitted, or stored only in accord with that
 written license.
  
 The following legend is applicable only to US Government
 contracts under FAR:
  
                    RESTRICTED RIGHTS LEGEND
  
 Use, reproduction and disclosure by the US Government is
 subject to restrictions as set forth in subparagraphs (a)
 and (c) of the Commercial Computer Software - Restricted
 Rights clause in FAR 52.227-19.
  
 Gaussian, Inc.
 340 Quinnipiac St., Bldg. 40, Wallingford CT 06492
  
  
 ---------------------------------------------------------------
 Warning -- This program may not be used in any manner that
 competes with the business of Gaussian, Inc. or will provide
 assistance to any competitor of Gaussian, Inc.  The licensee
 of this program is prohibited from giving any competitor of
 Gaussian, Inc. access to this program.  By using this program,
 the user acknowledges that Gaussian, Inc. is engaged in the
 business of creating and licensing software in the field of
 computational chemistry and represents and warrants to the
 licensee that it is not a competitor of Gaussian, Inc. and that
 it will not use this program in any manner prohibited above.
 ---------------------------------------------------------------
  

 Cite this work as:
 Gaussian 09, Revision B.01,
 M. J. Frisch, G. W. Trucks, H. B. Schlegel, G. E. Scuseria, 
 M. A. Robb, J. R. Cheeseman, G. Scalmani, V. Barone, B. Mennucci, 
 G. A. Petersson, H. Nakatsuji, M. Caricato, X. Li, H. P. Hratchian, 
 A. F. Izmaylov, J. Bloino, G. Zheng, J. L. Sonnenberg, M. Hada, 
 M. Ehara, K. Toyota, R. Fukuda, J. Hasegawa, M. Ishida, T. Nakajima, 
 Y. Honda, O. Kitao, H. Nakai, T. Vreven, J. A. Montgomery, Jr., 
 J. E. Peralta, F. Ogliaro, M. Bearpark, J. J. Heyd, E. Brothers, 
 K. N. Kudin, V. N. Staroverov, T. Keith, R. Kobayashi, J. Normand, 
 K. Raghavachari, A. Rendell, J. C. Burant, S. S. Iyengar, J. Tomasi, 
 M. Cossi, N. Rega, J. M. Millam, M. Klene, J. E. Knox, J. B. Cross, 
 V. Bakken, C. Adamo, J. Jaramillo, R. Gomperts, R. E. Stratmann, 
 O. Yazyev, A. J. Austin, R. Cammi, C. Pomelli, J. W. Ochterski, 
 R. L. Martin, K. Morokuma, V. G. Zakrzewski, G. A. Voth, 
 P. Salvador, J. J. Dannenberg, S. Dapprich, A. D. Daniels, 
 O. Farkas, J. B. Foresman, J. V. Ortiz, J. Cioslowski, 
 and D. J. Fox, Gaussian, Inc., Wallingford CT, 2010.
 
 ******************************************
 Gaussian 09:  EM64L-G09RevB.01 12-Aug-2010
                22-Mar-2018 
 ******************************************
 %nprocshared=20
 Will use up to   20 processors via shared memory.
 %mem=5GB
 ---------------------------------------------------------
 #p m062x/6-311+g(2df,2p) opt=(ts,calcfc,noeigentest) freq
 ---------------------------------------------------------
 1/5=1,10=4,11=1,14=-1,18=20,26=3,38=1/1,3;
 2/9=110,12=2,17=6,18=5,40=1/2;
 3/5=4,6=6,7=214,11=2,16=1,25=1,30=1,71=2,74=-55/1,2,3;
 4//1;
 5/5=2,38=5/2;
 8/6=4,10=90,11=11/1;
 11/6=1,8=1,9=11,15=111,16=1/1,2,10;
 10/6=1,7=6,13=1/2;
 6/7=2,8=2,9=2,10=2,28=1/1;
 7/10=1,18=20,25=1/1,2,3,16;
 1/5=1,10=4,11=1,14=-1,18=20/3(2);
 2/9=110/2;
 99//99;
 2/9=110/2;
 3/5=4,6=6,7=214,11=2,16=1,25=1,30=1,71=1,74=-55/1,2,3;
 4/5=5,16=3/1;
 5/5=2,38=5/2;
 7//1,2,3,16;
 1/5=1,11=1,14=-1,18=20/3(-5);
 2/9=110/2;
 6/7=2,8=2,9=2,10=2,19=2,28=1/1;
 99/9=1/99;
 Leave Link    1 at Thu Mar 22 13:19:07 2018, MaxMem=  671088640 cpu:       1.2
 (Enter /shared/apps/gaussian/G09_LINUX_LINDA/g09/l101.exe)
 ------------------------------
 Gaussian input prepared by ASE
 ------------------------------
 Symbolic Z-matrix:
 Charge =  0 Multiplicity = 2
 C                    -0.9386   -0.3135    0.5789 
 C                     0.0736   -1.0924   -0.2529 
 C                    -1.5023    0.8671   -0.2047 
 H                    -0.4423    0.0613    1.4996 
 H                    -1.7695   -0.9893    0.8757 
 H                     1.1106   -0.2753   -0.6139 
 H                     0.4758   -1.9372    0.345 
 H                    -0.409    -1.5002   -1.1666 
 H                    -2.0195    0.5106   -1.121 
 H                    -2.2341    1.4154    0.4253 
 H                    -0.687     1.5652   -0.4911 
 O                     3.1984    0.6911   -0.1529 
 O                     1.9499    0.5244   -0.5343 
 H                     3.194     0.4726    0.8129 
 
 NAtoms=     14 NQM=     14 NQMF=      0 NMic=      0 NMicF=      0 NTot=     14.
                    Isotopes and Nuclear Properties:
 (Nuclear quadrupole moments (NQMom) in fm**2, nuclear magnetic moments (NMagM)
  in nuclear magnetons)

  Atom         1           2           3           4           5           6           7           8           9          10
 IAtWgt=          12          12          12           1           1           1           1           1           1           1
 AtmWgt=  12.0000000  12.0000000  12.0000000   1.0078250   1.0078250   1.0078250   1.0078250   1.0078250   1.0078250   1.0078250
 NucSpn=           0           0           0           1           1           1           1           1           1           1
 AtZEff=   0.0000000   0.0000000   0.0000000   0.0000000   0.0000000   0.0000000   0.0000000   0.0000000   0.0000000   0.0000000
 NQMom=    0.0000000   0.0000000   0.0000000   0.0000000   0.0000000   0.0000000   0.0000000   0.0000000   0.0000000   0.0000000
 NMagM=    0.0000000   0.0000000   0.0000000   2.7928460   2.7928460   2.7928460   2.7928460   2.7928460   2.7928460   2.7928460

  Atom        11          12          13          14
 IAtWgt=           1          16          16           1
 AtmWgt=   1.0078250  15.9949146  15.9949146   1.0078250
 NucSpn=           1           0           0           1
 AtZEff=   0.0000000   0.0000000   0.0000000   0.0000000
 NQMom=    0.0000000   0.0000000   0.0000000   0.0000000
 NMagM=    2.7928460   0.0000000   0.0000000   2.7928460
 Leave Link  101 at Thu Mar 22 13:19:08 2018, MaxMem=  671088640 cpu:       1.2
 (Enter /shared/apps/gaussian/G09_LINUX_LINDA/g09/l103.exe)

 GradGradGradGradGradGradGradGradGradGradGradGradGradGradGradGradGradGrad
 Berny optimization.
 Initialization pass.
                           ----------------------------
                           !    Initial Parameters    !
                           ! (Angstroms and Degrees)  !
 --------------------------                            --------------------------
 ! Name  Definition              Value          Derivative Info.                !
 --------------------------------------------------------------------------------
 ! R1    R(1,2)                  1.5242         calculate D2E/DX2 analytically  !
 ! R2    R(1,3)                  1.525          calculate D2E/DX2 analytically  !
 ! R3    R(1,4)                  1.1111         calculate D2E/DX2 analytically  !
 ! R4    R(1,5)                  1.1114         calculate D2E/DX2 analytically  !
 ! R5    R(2,6)                  1.3687         calculate D2E/DX2 analytically  !
 ! R6    R(2,7)                  1.1104         calculate D2E/DX2 analytically  !
 ! R7    R(2,8)                  1.1109         calculate D2E/DX2 analytically  !
 ! R8    R(3,9)                  1.1109         calculate D2E/DX2 analytically  !
 ! R9    R(3,10)                 1.1104         calculate D2E/DX2 analytically  !
 ! R10   R(3,11)                 1.1109         calculate D2E/DX2 analytically  !
 ! R11   R(6,13)                 1.162          calculate D2E/DX2 analytically  !
 ! R12   R(12,13)                1.3161         calculate D2E/DX2 analytically  !
 ! R13   R(12,14)                0.9902         calculate D2E/DX2 analytically  !
 ! A1    A(2,1,3)              111.1419         calculate D2E/DX2 analytically  !
 ! A2    A(2,1,4)              109.1459         calculate D2E/DX2 analytically  !
 ! A3    A(2,1,5)              109.3594         calculate D2E/DX2 analytically  !
 ! A4    A(3,1,4)              109.2542         calculate D2E/DX2 analytically  !
 ! A5    A(3,1,5)              109.3669         calculate D2E/DX2 analytically  !
 ! A6    A(4,1,5)              108.5285         calculate D2E/DX2 analytically  !
 ! A7    A(1,2,6)              109.9996         calculate D2E/DX2 analytically  !
 ! A8    A(1,2,7)              109.6023         calculate D2E/DX2 analytically  !
 ! A9    A(1,2,8)              110.3628         calculate D2E/DX2 analytically  !
 ! A10   A(6,2,7)              108.7712         calculate D2E/DX2 analytically  !
 ! A11   A(6,2,8)              109.3515         calculate D2E/DX2 analytically  !
 ! A12   A(7,2,8)              108.7206         calculate D2E/DX2 analytically  !
 ! A13   A(1,3,9)              110.3326         calculate D2E/DX2 analytically  !
 ! A14   A(1,3,10)             109.5323         calculate D2E/DX2 analytically  !
 ! A15   A(1,3,11)             110.3458         calculate D2E/DX2 analytically  !
 ! A16   A(9,3,10)             108.6379         calculate D2E/DX2 analytically  !
 ! A17   A(9,3,11)             109.3107         calculate D2E/DX2 analytically  !
 ! A18   A(10,3,11)            108.6412         calculate D2E/DX2 analytically  !
 ! A19   A(2,6,13)             160.0545         calculate D2E/DX2 analytically  !
 ! A20   A(13,12,14)           104.5067         calculate D2E/DX2 analytically  !
 ! A21   A(6,13,12)            142.3941         calculate D2E/DX2 analytically  !
 ! D1    D(3,1,2,6)             59.7905         calculate D2E/DX2 analytically  !
 ! D2    D(3,1,2,7)            179.3368         calculate D2E/DX2 analytically  !
 ! D3    D(3,1,2,8)            -60.9547         calculate D2E/DX2 analytically  !
 ! D4    D(4,1,2,6)            -60.7745         calculate D2E/DX2 analytically  !
 ! D5    D(4,1,2,7)             58.7718         calculate D2E/DX2 analytically  !
 ! D6    D(4,1,2,8)            178.4804         calculate D2E/DX2 analytically  !
 ! D7    D(5,1,2,6)           -179.3637         calculate D2E/DX2 analytically  !
 ! D8    D(5,1,2,7)            -59.8175         calculate D2E/DX2 analytically  !
 ! D9    D(5,1,2,8)             59.8911         calculate D2E/DX2 analytically  !
 ! D10   D(2,1,3,9)             60.53           calculate D2E/DX2 analytically  !
 ! D11   D(2,1,3,10)          -179.9261         calculate D2E/DX2 analytically  !
 ! D12   D(2,1,3,11)           -60.37           calculate D2E/DX2 analytically  !
 ! D13   D(4,1,3,9)           -178.969          calculate D2E/DX2 analytically  !
 ! D14   D(4,1,3,10)           -59.4251         calculate D2E/DX2 analytically  !
 ! D15   D(4,1,3,11)            60.131          calculate D2E/DX2 analytically  !
 ! D16   D(5,1,3,9)            -60.3114         calculate D2E/DX2 analytically  !
 ! D17   D(5,1,3,10)            59.2325         calculate D2E/DX2 analytically  !
 ! D18   D(5,1,3,11)           178.7886         calculate D2E/DX2 analytically  !
 ! D19   D(1,2,6,13)            43.9164         calculate D2E/DX2 analytically  !
 ! D20   D(7,2,6,13)           -76.1349         calculate D2E/DX2 analytically  !
 ! D21   D(8,2,6,13)           165.2682         calculate D2E/DX2 analytically  !
 ! D22   D(2,6,13,12)           82.6125         calculate D2E/DX2 analytically  !
 ! D23   D(14,12,13,6)         -60.9679         calculate D2E/DX2 analytically  !
 --------------------------------------------------------------------------------
 Trust Radius=3.00D-01 FncErr=1.00D-07 GrdErr=1.00D-06
 Number of steps in this run=     67 maximum allowed number of steps=    100.
 Search for a saddle point of order  1.
 GradGradGradGradGradGradGradGradGradGradGradGradGradGradGradGradGradGrad

 Leave Link  103 at Thu Mar 22 13:19:08 2018, MaxMem=  671088640 cpu:       0.2
 (Enter /shared/apps/gaussian/G09_LINUX_LINDA/g09/l202.exe)
                          Input orientation:                          
 ---------------------------------------------------------------------
 Center     Atomic      Atomic             Coordinates (Angstroms)
 Number     Number       Type             X           Y           Z
 ---------------------------------------------------------------------
      1          6           0       -0.938600   -0.313500    0.578900
      2          6           0        0.073600   -1.092400   -0.252900
      3          6           0       -1.502300    0.867100   -0.204700
      4          1           0       -0.442300    0.061300    1.499600
      5          1           0       -1.769500   -0.989300    0.875700
      6          1           0        1.110600   -0.275300   -0.613900
      7          1           0        0.475800   -1.937200    0.345000
      8          1           0       -0.409000   -1.500200   -1.166600
      9          1           0       -2.019500    0.510600   -1.121000
     10          1           0       -2.234100    1.415400    0.425300
     11          1           0       -0.687000    1.565200   -0.491100
     12          8           0        3.198400    0.691100   -0.152900
     13          8           0        1.949900    0.524400   -0.534300
     14          1           0        3.194000    0.472600    0.812900
 ---------------------------------------------------------------------
                    Distance matrix (angstroms):
                    1          2          3          4          5
     1  C    0.000000
     2  C    1.524180   0.000000
     3  C    1.524993   2.515040   0.000000
     4  H    1.111070   2.160656   2.162765   0.000000
     5  H    1.111391   2.163651   2.164459   1.804015   0.000000
     6  H    2.371382   1.368701   2.880932   2.644179   3.320193
     7  H    2.166019   1.110377   3.475507   2.483951   2.494299
     8  H    2.176121   1.110879   2.779328   3.089986   2.506585
     9  H    2.176498   2.775657   1.110943   3.091436   2.509783
    10  H    2.165874   3.474837   1.110434   2.489629   2.490240
    11  H    2.176630   2.774543   1.110893   2.506886   3.092801
    12  O    4.319667   3.599340   4.704279   4.047481   5.344323
    13  O    3.206980   2.492735   3.484790   3.173930   4.255975
    14  H    4.213204   3.649938   4.821449   3.723359   5.174691
                    6          7          8          9         10
     6  H    0.000000
     7  H    2.020983   0.000000
     8  H    2.028556   1.805208   0.000000
     9  H    3.266851   3.790436   2.576646   0.000000
    10  H    3.889141   4.311604   3.790232   1.804372   0.000000
    11  H    2.575633   3.783910   3.151232   1.812322   1.804369
    12  O    2.346350   3.816859   4.340820   5.310017   5.510987
    13  O    1.162016   3.000935   3.172258   4.012548   4.384127
    14  H    2.633566   3.662605   4.559821   5.560755   5.522986
                   11         12         13         14
    11  H    0.000000
    12  O    3.996844   0.000000
    13  O    2.835202   1.316057   0.000000
    14  H    4.237494   0.990218   1.834507   0.000000
 Stoichiometry    C3H9O2(2)
 Framework group  C1[X(C3H9O2)]
 Deg. of freedom    36
 Full point group                 C1      NOp   1
 Largest Abelian subgroup         C1      NOp   1
 Largest concise Abelian subgroup C1      NOp   1
                         Standard orientation:                         
 ---------------------------------------------------------------------
 Center     Atomic      Atomic             Coordinates (Angstroms)
 Number     Number       Type             X           Y           Z
 ---------------------------------------------------------------------
      1          6           0        1.589011    0.326088    0.531242
      2          6           0        0.617274    1.134300   -0.320606
      3          6           0        1.951657   -0.990521   -0.147457
      4          1           0        1.120606    0.113749    1.516121
      5          1           0        2.512877    0.920290    0.700313
      6          1           0       -0.531976    0.419667   -0.525218
      7          1           0        0.361641    2.080142    0.201860
      8          1           0        1.076493    1.381635   -1.301419
      9          1           0        2.438935   -0.798386   -1.127170
     10          1           0        2.658030   -1.557235    0.495145
     11          1           0        1.041383   -1.607591   -0.304645
     12          8           0       -2.679550   -0.225983    0.165013
     13          8           0       -1.451262   -0.256632   -0.306554
     14          1           0       -2.579151    0.089444    1.098264
 ---------------------------------------------------------------------
 Rotational constants (GHZ):      8.7453637      1.8515881      1.6745764
 Leave Link  202 at Thu Mar 22 13:19:08 2018, MaxMem=  671088640 cpu:       0.8
 (Enter /shared/apps/gaussian/G09_LINUX_LINDA/g09/l301.exe)
 Standard basis: 6-311+G(2df,2p) (5D, 7F)
 Ernie: Thresh=  0.10000D-02 Tol=  0.10000D-05 Strict=F.
 There are   251 symmetry adapted basis functions of A   symmetry.
 Integral buffers will be    131072 words long.
 Raffenetti 2 integral format.
 Two-electron integral symmetry is turned on.
   251 basis functions,   359 primitive gaussians,   276 cartesian basis functions
    22 alpha electrons       21 beta electrons
       nuclear repulsion energy       181.4730191190 Hartrees.
 IExCor= 4336 DFT=T Ex+Corr=M062X ExCW=0 ScaHFX=  0.540000
 ScaDFX=  1.000000  1.000000  1.000000  1.000000 ScalE2=  1.000000  1.000000
 IRadAn=      0 IRanWt=     -1 IRanGd=            0 ICorTp=0
 NAtoms=   14 NActive=   14 NUniq=   14 SFac= 1.00D+00 NAtFMM=   50 NAOKFM=F Big=F
 Leave Link  301 at Thu Mar 22 13:19:09 2018, MaxMem=  671088640 cpu:       1.0
 (Enter /shared/apps/gaussian/G09_LINUX_LINDA/g09/l302.exe)
 NPDir=0 NMtPBC=     1 NCelOv=     1 NCel=       1 NClECP=     1 NCelD=      1
         NCelK=      1 NCelE2=     1 NClLst=     1 CellRange=     0.0.
 One-electron integrals computed using PRISM.
 NBasis=   251 RedAO= T  NBF=   251
 NBsUse=   251 1.00D-06 NBFU=   251
 Precomputing XC quadrature grid using
 IXCGrd= 2 IRadAn=           0 IRanWt=          -1 IRanGd=           0 AccXCQ= 0.00D+00.
 NRdTot=     898 NPtTot=      114472 NUsed=      120953 NTot=      120985
 NSgBfM=   276   276   276   276   276 NAtAll=    14    14.
 Leave Link  302 at Thu Mar 22 13:19:11 2018, MaxMem=  671088640 cpu:      18.0
 (Enter /shared/apps/gaussian/G09_LINUX_LINDA/g09/l303.exe)
 DipDrv:  MaxL=1.
 Leave Link  303 at Thu Mar 22 13:19:11 2018, MaxMem=  671088640 cpu:       3.4
 (Enter /shared/apps/gaussian/G09_LINUX_LINDA/g09/l401.exe)
 Harris functional with IExCor= 1009 diagonalized for initial guess.
 ExpMin= 4.38D-02 ExpMax= 8.59D+03 ExpMxC= 1.30D+03 IAcc=2 IRadAn=         0 AccDes= 0.00D+00
 HarFok:  IExCor= 1009 AccDes= 0.00D+00 IRadAn=         0 IDoV= 1
 ScaDFX=  1.000000  1.000000  1.000000  1.000000
 FoFCou: FMM=F IPFlag=           0 FMFlag=      100000 FMFlg1=           0
         NFxFlg=           0 DoJE=T BraDBF=F KetDBF=T FulRan=T
         Omega=  0.000000  0.000000  1.000000  0.000000  0.000000 ICntrl=     500 IOpCl=  0
         NMat0=    1 NMatS0=    1 NMatT0=    0 NMatD0=    1 NMtDS0=    0 NMtDT0=    0
         I1Cent=           4 NGrid=           0.
 Petite list used in FoFCou.
 Harris En= -269.864787604388    
 Initial guess orbital symmetries:
 Alpha Orbitals:
       Occupied  (A) (A) (A) (A) (A) (A) (A) (A) (A) (A) (A) (A)
                 (A) (A) (A) (A) (A) (A) (A) (A) (A) (A)
       Virtual   (A) (A) (A) (A) (A) (A) (A) (A) (A) (A) (A) (A)
                 (A) (A) (A) (A) (A) (A) (A) (A) (A) (A) (A) (A)
                 (A) (A) (A) (A) (A) (A) (A) (A) (A) (A) (A) (A)
                 (A) (A) (A) (A) (A) (A) (A) (A) (A) (A) (A) (A)
                 (A) (A) (A) (A) (A) (A) (A) (A) (A) (A) (A) (A)
                 (A) (A) (A) (A) (A) (A) (A) (A) (A) (A) (A) (A)
                 (A) (A) (A) (A) (A) (A) (A) (A) (A) (A) (A) (A)
                 (A) (A) (A) (A) (A) (A) (A) (A) (A) (A) (A) (A)
                 (A) (A) (A) (A) (A) (A) (A) (A) (A) (A) (A) (A)
                 (A) (A) (A) (A) (A) (A) (A) (A) (A) (A) (A) (A)
                 (A) (A) (A) (A) (A) (A) (A) (A) (A) (A) (A) (A)
                 (A) (A) (A) (A) (A) (A) (A) (A) (A) (A) (A) (A)
                 (A) (A) (A) (A) (A) (A) (A) (A) (A) (A) (A) (A)
                 (A) (A) (A) (A) (A) (A) (A) (A) (A) (A) (A) (A)
                 (A) (A) (A) (A) (A) (A) (A) (A) (A) (A) (A) (A)
                 (A) (A) (A) (A) (A) (A) (A) (A) (A) (A) (A) (A)
                 (A) (A) (A) (A) (A) (A) (A) (A) (A) (A) (A) (A)
                 (A) (A) (A) (A) (A) (A) (A) (A) (A) (A) (A) (A)
                 (A) (A) (A) (A) (A) (A) (A) (A) (A) (A) (A) (A)
                 (A)
 Beta  Orbitals:
       Occupied  (A) (A) (A) (A) (A) (A) (A) (A) (A) (A) (A) (A)
                 (A) (A) (A) (A) (A) (A) (A) (A) (A)
       Virtual   (A) (A) (A) (A) (A) (A) (A) (A) (A) (A) (A) (A)
                 (A) (A) (A) (A) (A) (A) (A) (A) (A) (A) (A) (A)
                 (A) (A) (A) (A) (A) (A) (A) (A) (A) (A) (A) (A)
                 (A) (A) (A) (A) (A) (A) (A) (A) (A) (A) (A) (A)
                 (A) (A) (A) (A) (A) (A) (A) (A) (A) (A) (A) (A)
                 (A) (A) (A) (A) (A) (A) (A) (A) (A) (A) (A) (A)
                 (A) (A) (A) (A) (A) (A) (A) (A) (A) (A) (A) (A)
                 (A) (A) (A) (A) (A) (A) (A) (A) (A) (A) (A) (A)
                 (A) (A) (A) (A) (A) (A) (A) (A) (A) (A) (A) (A)
                 (A) (A) (A) (A) (A) (A) (A) (A) (A) (A) (A) (A)
                 (A) (A) (A) (A) (A) (A) (A) (A) (A) (A) (A) (A)
                 (A) (A) (A) (A) (A) (A) (A) (A) (A) (A) (A) (A)
                 (A) (A) (A) (A) (A) (A) (A) (A) (A) (A) (A) (A)
                 (A) (A) (A) (A) (A) (A) (A) (A) (A) (A) (A) (A)
                 (A) (A) (A) (A) (A) (A) (A) (A) (A) (A) (A) (A)
                 (A) (A) (A) (A) (A) (A) (A) (A) (A) (A) (A) (A)
                 (A) (A) (A) (A) (A) (A) (A) (A) (A) (A) (A) (A)
                 (A) (A) (A) (A) (A) (A) (A) (A) (A) (A) (A) (A)
                 (A) (A) (A) (A) (A) (A) (A) (A) (A) (A) (A) (A)
                 (A) (A)
 The electronic state of the initial guess is 2-A.
 Initial guess <Sx>= 0.0000 <Sy>= 0.0000 <Sz>= 0.5000 <S**2>= 0.7500 S= 0.5000
 Leave Link  401 at Thu Mar 22 13:19:16 2018, MaxMem=  671088640 cpu:      42.3
 (Enter /shared/apps/gaussian/G09_LINUX_LINDA/g09/l502.exe)
 UHF open shell SCF:
 Requested convergence on RMS density matrix=1.00D-08 within 128 cycles.
 Requested convergence on MAX density matrix=1.00D-06.
 Requested convergence on             energy=1.00D-06.
 No special actions if energy rises.
 Using DIIS extrapolation, IDIIS=  1040.
 Integral symmetry usage will be decided dynamically.
       120814 words used for storage of precomputed grid.
 IEnd=      375028 IEndB=      375028 NGot=   671088640 MDV=   670806705
 LenX=   670806705 LenY=   670730088
 Fock matrices will be formed incrementally for  20 cycles.

 Cycle   1  Pass 1  IDiag  1:
 FoFCou: FMM=F IPFlag=           0 FMFlag=      100000 FMFlg1=           0
         NFxFlg=           0 DoJE=F BraDBF=F KetDBF=F FulRan=T
         Omega=  0.000000  0.000000  1.000000  0.000000  0.000000 ICntrl=       0 IOpCl=  1
         NMat0=    1 NMatS0=    1 NMatT0=    0 NMatD0=    1 NMtDS0=    0 NMtDT0=    0
         I1Cent=           0 NGrid=           0.
 Symmetry not used in FoFCou.
 E= -269.720705305946    
 DIIS: error= 2.48D-02 at cycle   1 NSaved=   1.
 NSaved= 1 IEnMin= 1 EnMin= -269.720705305946     IErMin= 1 ErrMin= 2.48D-02
 ErrMax= 2.48D-02 EMaxC= 1.00D-01 BMatC= 9.21D-01 BMatP= 9.21D-01
 IDIUse=3 WtCom= 7.52D-01 WtEn= 2.48D-01
 Coeff-Com:  0.100D+01
 Coeff-En:   0.100D+01
 Coeff:      0.100D+01
 Gap=     0.430 Goal=   None    Shift=    0.000
 Gap=     0.237 Goal=   None    Shift=    0.000
 GapD=    0.237 DampG=1.000 DampE=0.500 DampFc=0.5000 IDamp=-1.
 Damping current iteration by 5.00D-01
 RMSDP=3.22D-03 MaxDP=1.45D-01              OVMax= 3.71D-01

 Cycle   2  Pass 1  IDiag  1:
 RMSU=  1.26D-03    CP:  9.83D-01
 E= -269.812396041924     Delta-E=       -0.091690735978 Rises=F Damp=T
 DIIS: error= 1.00D-02 at cycle   2 NSaved=   2.
 NSaved= 2 IEnMin= 2 EnMin= -269.812396041924     IErMin= 2 ErrMin= 1.00D-02
 ErrMax= 1.00D-02 EMaxC= 1.00D-01 BMatC= 9.39D-02 BMatP= 9.21D-01
 IDIUse=3 WtCom= 9.00D-01 WtEn= 1.00D-01
 Coeff-Com:  0.210D-01 0.979D+00
 Coeff-En:   0.105D+00 0.895D+00
 Coeff:      0.294D-01 0.971D+00
 Gap=     0.332 Goal=   None    Shift=    0.000
 Gap=     0.291 Goal=   None    Shift=    0.000
 RMSDP=1.15D-03 MaxDP=4.07D-02 DE=-9.17D-02 OVMax= 2.75D-01

 Cycle   3  Pass 1  IDiag  1:
 RMSU=  8.12D-04    CP:  9.79D-01  8.18D-01
 E= -269.922247829469     Delta-E=       -0.109851787545 Rises=F Damp=F
 DIIS: error= 5.60D-03 at cycle   3 NSaved=   3.
 NSaved= 3 IEnMin= 3 EnMin= -269.922247829469     IErMin= 3 ErrMin= 5.60D-03
 ErrMax= 5.60D-03 EMaxC= 1.00D-01 BMatC= 5.31D-02 BMatP= 9.39D-02
 IDIUse=3 WtCom= 9.44D-01 WtEn= 5.60D-02
 Coeff-Com: -0.601D-01 0.441D+00 0.619D+00
 Coeff-En:   0.000D+00 0.000D+00 0.100D+01
 Coeff:     -0.568D-01 0.416D+00 0.640D+00
 Gap=     0.320 Goal=   None    Shift=    0.000
 Gap=     0.201 Goal=   None    Shift=    0.000
 RMSDP=4.42D-04 MaxDP=1.97D-02 DE=-1.10D-01 OVMax= 1.02D-01

 Cycle   4  Pass 1  IDiag  1:
 RMSU=  2.42D-04    CP:  9.80D-01  9.11D-01  8.36D-01
 E= -269.932697739858     Delta-E=       -0.010449910389 Rises=F Damp=F
 DIIS: error= 2.32D-03 at cycle   4 NSaved=   4.
 NSaved= 4 IEnMin= 4 EnMin= -269.932697739858     IErMin= 4 ErrMin= 2.32D-03
 ErrMax= 2.32D-03 EMaxC= 1.00D-01 BMatC= 1.00D-02 BMatP= 5.31D-02
 IDIUse=3 WtCom= 9.77D-01 WtEn= 2.32D-02
 Coeff-Com: -0.261D-01 0.647D-01 0.324D+00 0.638D+00
 Coeff-En:   0.000D+00 0.000D+00 0.346D-01 0.965D+00
 Coeff:     -0.255D-01 0.632D-01 0.317D+00 0.645D+00
 Gap=     0.318 Goal=   None    Shift=    0.000
 Gap=     0.212 Goal=   None    Shift=    0.000
 RMSDP=1.56D-04 MaxDP=6.83D-03 DE=-1.04D-02 OVMax= 1.48D-02

 Cycle   5  Pass 1  IDiag  1:
 RMSU=  8.15D-05    CP:  9.78D-01  8.93D-01  9.08D-01  8.91D-01
 E= -269.934945079540     Delta-E=       -0.002247339682 Rises=F Damp=F
 DIIS: error= 7.35D-04 at cycle   5 NSaved=   5.
 NSaved= 5 IEnMin= 5 EnMin= -269.934945079540     IErMin= 5 ErrMin= 7.35D-04
 ErrMax= 7.35D-04 EMaxC= 1.00D-01 BMatC= 5.31D-04 BMatP= 1.00D-02
 IDIUse=3 WtCom= 9.93D-01 WtEn= 7.35D-03
 Coeff-Com:  0.115D-02-0.150D-01 0.521D-01 0.130D+00 0.832D+00
 Coeff-En:   0.000D+00 0.000D+00 0.000D+00 0.000D+00 0.100D+01
 Coeff:      0.114D-02-0.149D-01 0.517D-01 0.129D+00 0.833D+00
 Gap=     0.319 Goal=   None    Shift=    0.000
 Gap=     0.217 Goal=   None    Shift=    0.000
 RMSDP=8.47D-05 MaxDP=3.08D-03 DE=-2.25D-03 OVMax= 1.90D-02

 Cycle   6  Pass 1  IDiag  1:
 RMSU=  3.14D-05    CP:  9.78D-01  8.83D-01  9.25D-01  9.79D-01  1.40D+00
 E= -269.935387380721     Delta-E=       -0.000442301180 Rises=F Damp=F
 DIIS: error= 6.37D-04 at cycle   6 NSaved=   6.
 NSaved= 6 IEnMin= 6 EnMin= -269.935387380721     IErMin= 6 ErrMin= 6.37D-04
 ErrMax= 6.37D-04 EMaxC= 1.00D-01 BMatC= 3.70D-04 BMatP= 5.31D-04
 IDIUse=3 WtCom= 9.94D-01 WtEn= 6.37D-03
 Coeff-Com:  0.109D-01-0.300D-01-0.567D-01-0.158D+00 0.360D+00 0.874D+00
 Coeff-En:   0.000D+00 0.000D+00 0.000D+00 0.000D+00 0.000D+00 0.100D+01
 Coeff:      0.109D-01-0.299D-01-0.563D-01-0.157D+00 0.358D+00 0.874D+00
 Gap=     0.322 Goal=   None    Shift=    0.000
 Gap=     0.220 Goal=   None    Shift=    0.000
 RMSDP=8.99D-05 MaxDP=2.99D-03 DE=-4.42D-04 OVMax= 2.22D-02

 Cycle   7  Pass 1  IDiag  1:
 RMSU=  2.09D-05    CP:  9.77D-01  8.72D-01  9.33D-01  1.06D+00  1.93D+00
                    CP:  1.57D+00
 E= -269.935721260410     Delta-E=       -0.000333879689 Rises=F Damp=F
 DIIS: error= 3.35D-04 at cycle   7 NSaved=   7.
 NSaved= 7 IEnMin= 7 EnMin= -269.935721260410     IErMin= 7 ErrMin= 3.35D-04
 ErrMax= 3.35D-04 EMaxC= 1.00D-01 BMatC= 1.54D-04 BMatP= 3.70D-04
 IDIUse=3 WtCom= 9.97D-01 WtEn= 3.35D-03
 Coeff-Com:  0.487D-02-0.446D-02-0.230D-01-0.127D+00-0.213D+00 0.445D+00
 Coeff-Com:  0.918D+00
 Coeff-En:   0.000D+00 0.000D+00 0.000D+00 0.000D+00 0.000D+00 0.000D+00
 Coeff-En:   0.100D+01
 Coeff:      0.485D-02-0.444D-02-0.229D-01-0.127D+00-0.213D+00 0.443D+00
 Coeff:      0.919D+00
 Gap=     0.323 Goal=   None    Shift=    0.000
 Gap=     0.222 Goal=   None    Shift=    0.000
 RMSDP=7.90D-05 MaxDP=2.46D-03 DE=-3.34D-04 OVMax= 1.89D-02

 Cycle   8  Pass 1  IDiag  1:
 RMSU=  1.60D-05    CP:  9.76D-01  8.64D-01  9.39D-01  1.11D+00  2.32D+00
                    CP:  2.37D+00  1.76D+00
 E= -269.935932117376     Delta-E=       -0.000210856965 Rises=F Damp=F
 DIIS: error= 2.14D-04 at cycle   8 NSaved=   8.
 NSaved= 8 IEnMin= 8 EnMin= -269.935932117376     IErMin= 8 ErrMin= 2.14D-04
 ErrMax= 2.14D-04 EMaxC= 1.00D-01 BMatC= 4.50D-05 BMatP= 1.54D-04
 IDIUse=3 WtCom= 9.98D-01 WtEn= 2.14D-03
 Coeff-Com: -0.255D-02 0.832D-02 0.319D-01 0.481D-01-0.117D+00-0.232D+00
 Coeff-Com: -0.952D-01 0.136D+01
 Coeff-En:   0.000D+00 0.000D+00 0.000D+00 0.000D+00 0.000D+00 0.000D+00
 Coeff-En:   0.000D+00 0.100D+01
 Coeff:     -0.254D-02 0.830D-02 0.319D-01 0.480D-01-0.117D+00-0.231D+00
 Coeff:     -0.950D-01 0.136D+01
 Gap=     0.324 Goal=   None    Shift=    0.000
 Gap=     0.223 Goal=   None    Shift=    0.000
 RMSDP=6.86D-05 MaxDP=2.58D-03 DE=-2.11D-04 OVMax= 1.83D-02

 Cycle   9  Pass 1  IDiag  1:
 RMSU=  9.90D-06    CP:  9.75D-01  8.60D-01  9.39D-01  1.15D+00  2.58D+00
                    CP:  3.00D+00  2.71D+00  1.84D+00
 E= -269.936053902110     Delta-E=       -0.000121784735 Rises=F Damp=F
 DIIS: error= 1.49D-04 at cycle   9 NSaved=   9.
 NSaved= 9 IEnMin= 9 EnMin= -269.936053902110     IErMin= 9 ErrMin= 1.49D-04
 ErrMax= 1.49D-04 EMaxC= 1.00D-01 BMatC= 2.48D-05 BMatP= 4.50D-05
 IDIUse=3 WtCom= 9.99D-01 WtEn= 1.49D-03
 Coeff-Com: -0.287D-02 0.449D-02 0.307D-01 0.820D-01 0.580D-01-0.309D+00
 Coeff-Com: -0.596D+00 0.618D+00 0.112D+01
 Coeff-En:   0.000D+00 0.000D+00 0.000D+00 0.000D+00 0.000D+00 0.000D+00
 Coeff-En:   0.000D+00 0.000D+00 0.100D+01
 Coeff:     -0.286D-02 0.448D-02 0.306D-01 0.819D-01 0.579D-01-0.309D+00
 Coeff:     -0.596D+00 0.617D+00 0.112D+01
 Gap=     0.325 Goal=   None    Shift=    0.000
 Gap=     0.224 Goal=   None    Shift=    0.000
 RMSDP=6.43D-05 MaxDP=2.54D-03 DE=-1.22D-04 OVMax= 1.63D-02

 Cycle  10  Pass 1  IDiag  1:
 RMSU=  2.09D-05    CP:  9.75D-01  8.56D-01  9.40D-01  1.18D+00  2.82D+00
                    CP:  3.00D+00  3.00D+00  2.83D+00  2.46D+00
 E= -269.936123395791     Delta-E=       -0.000069493681 Rises=F Damp=F
 DIIS: error= 7.72D-05 at cycle  10 NSaved=  10.
 NSaved=10 IEnMin=10 EnMin= -269.936123395791     IErMin=10 ErrMin= 7.72D-05
 ErrMax= 7.72D-05 EMaxC= 1.00D-01 BMatC= 4.59D-06 BMatP= 2.48D-05
 IDIUse=1 WtCom= 1.00D+00 WtEn= 0.00D+00
 Coeff-Com:  0.173D-02-0.399D-02-0.156D-01-0.351D-01 0.323D-01 0.152D+00
 Coeff-Com:  0.129D+00-0.623D+00-0.293D+00 0.166D+01
 Coeff:      0.173D-02-0.399D-02-0.156D-01-0.351D-01 0.323D-01 0.152D+00
 Coeff:      0.129D+00-0.623D+00-0.293D+00 0.166D+01
 Gap=     0.325 Goal=   None    Shift=    0.000
 Gap=     0.225 Goal=   None    Shift=    0.000
 RMSDP=4.57D-05 MaxDP=2.00D-03 DE=-6.95D-05 OVMax= 1.15D-02

 Cycle  11  Pass 1  IDiag  1:
 RMSU=  1.01D-05    CP:  9.74D-01  8.53D-01  9.40D-01  1.21D+00  2.97D+00
                    CP:  3.00D+00  3.00D+00  3.00D+00  3.00D+00  1.75D+00
 E= -269.936145246222     Delta-E=       -0.000021850431 Rises=F Damp=F
 DIIS: error= 2.35D-05 at cycle  11 NSaved=  11.
 NSaved=11 IEnMin=11 EnMin= -269.936145246222     IErMin=11 ErrMin= 2.35D-05
 ErrMax= 2.35D-05 EMaxC= 1.00D-01 BMatC= 7.40D-07 BMatP= 4.59D-06
 IDIUse=1 WtCom= 1.00D+00 WtEn= 0.00D+00
 Coeff-Com:  0.583D-03-0.921D-03-0.795D-02-0.180D-01-0.381D-02 0.737D-01
 Coeff-Com:  0.134D+00-0.209D+00-0.247D+00 0.208D+00 0.107D+01
 Coeff:      0.583D-03-0.921D-03-0.795D-02-0.180D-01-0.381D-02 0.737D-01
 Coeff:      0.134D+00-0.209D+00-0.247D+00 0.208D+00 0.107D+01
 Gap=     0.325 Goal=   None    Shift=    0.000
 Gap=     0.225 Goal=   None    Shift=    0.000
 RMSDP=1.18D-05 MaxDP=5.59D-04 DE=-2.19D-05 OVMax= 3.02D-03

 Cycle  12  Pass 1  IDiag  1:
 RMSU=  2.11D-06    CP:  9.74D-01  8.54D-01  9.39D-01  1.22D+00  3.00D+00
                    CP:  3.00D+00  3.00D+00  3.00D+00  3.00D+00  1.93D+00
                    CP:  1.39D+00
 E= -269.936147040655     Delta-E=       -0.000001794432 Rises=F Damp=F
 DIIS: error= 8.55D-06 at cycle  12 NSaved=  12.
 NSaved=12 IEnMin=12 EnMin= -269.936147040655     IErMin=12 ErrMin= 8.55D-06
 ErrMax= 8.55D-06 EMaxC= 1.00D-01 BMatC= 1.45D-07 BMatP= 7.40D-07
 IDIUse=1 WtCom= 1.00D+00 WtEn= 0.00D+00
 Coeff-Com: -0.387D-03 0.863D-03 0.232D-02 0.655D-02-0.564D-02-0.293D-01
 Coeff-Com: -0.181D-01 0.110D+00 0.709D-01-0.328D+00-0.519D-01 0.124D+01
 Coeff:     -0.387D-03 0.863D-03 0.232D-02 0.655D-02-0.564D-02-0.293D-01
 Coeff:     -0.181D-01 0.110D+00 0.709D-01-0.328D+00-0.519D-01 0.124D+01
 Gap=     0.325 Goal=   None    Shift=    0.000
 Gap=     0.225 Goal=   None    Shift=    0.000
 RMSDP=3.66D-06 MaxDP=1.61D-04 DE=-1.79D-06 OVMax= 1.03D-03

 Cycle  13  Pass 1  IDiag  1:
 RMSU=  1.06D-06    CP:  9.74D-01  8.54D-01  9.39D-01  1.22D+00  3.00D+00
                    CP:  3.00D+00  3.00D+00  3.00D+00  3.00D+00  1.96D+00
                    CP:  1.52D+00  1.46D+00
 E= -269.936147260461     Delta-E=       -0.000000219807 Rises=F Damp=F
 DIIS: error= 3.21D-06 at cycle  13 NSaved=  13.
 NSaved=13 IEnMin=13 EnMin= -269.936147260461     IErMin=13 ErrMin= 3.21D-06
 ErrMax= 3.21D-06 EMaxC= 1.00D-01 BMatC= 2.31D-08 BMatP= 1.45D-07
 IDIUse=1 WtCom= 1.00D+00 WtEn= 0.00D+00
 Coeff-Com: -0.101D-03 0.203D-03 0.904D-03 0.243D-02-0.519D-04-0.133D-01
 Coeff-Com: -0.120D-01 0.314D-01 0.391D-01-0.592D-01-0.141D+00 0.120D+00
 Coeff-Com:  0.103D+01
 Coeff:     -0.101D-03 0.203D-03 0.904D-03 0.243D-02-0.519D-04-0.133D-01
 Coeff:     -0.120D-01 0.314D-01 0.391D-01-0.592D-01-0.141D+00 0.120D+00
 Coeff:      0.103D+01
 Gap=     0.325 Goal=   None    Shift=    0.000
 Gap=     0.225 Goal=   None    Shift=    0.000
 RMSDP=1.02D-06 MaxDP=3.54D-05 DE=-2.20D-07 OVMax= 2.74D-04

 Cycle  14  Pass 1  IDiag  1:
 RMSU=  2.41D-07    CP:  9.74D-01  8.54D-01  9.38D-01  1.22D+00  3.00D+00
                    CP:  3.00D+00  3.00D+00  3.00D+00  3.00D+00  1.97D+00
                    CP:  1.54D+00  1.63D+00  1.36D+00
 E= -269.936147285148     Delta-E=       -0.000000024687 Rises=F Damp=F
 DIIS: error= 1.73D-06 at cycle  14 NSaved=  14.
 NSaved=14 IEnMin=14 EnMin= -269.936147285148     IErMin=14 ErrMin= 1.73D-06
 ErrMax= 1.73D-06 EMaxC= 1.00D-01 BMatC= 7.10D-09 BMatP= 2.31D-08
 IDIUse=1 WtCom= 1.00D+00 WtEn= 0.00D+00
 Coeff-Com:  0.438D-04-0.930D-04-0.290D-03-0.614D-03 0.124D-02 0.106D-02
 Coeff-Com:  0.267D-02-0.144D-01-0.150D-02 0.463D-01-0.332D-01-0.218D+00
 Coeff-Com:  0.328D+00 0.889D+00
 Coeff:      0.438D-04-0.930D-04-0.290D-03-0.614D-03 0.124D-02 0.106D-02
 Coeff:      0.267D-02-0.144D-01-0.150D-02 0.463D-01-0.332D-01-0.218D+00
 Coeff:      0.328D+00 0.889D+00
 Gap=     0.325 Goal=   None    Shift=    0.000
 Gap=     0.225 Goal=   None    Shift=    0.000
 RMSDP=4.58D-07 MaxDP=1.55D-05 DE=-2.47D-08 OVMax= 9.46D-05

 Cycle  15  Pass 1  IDiag  1:
 RMSU=  1.09D-07    CP:  9.74D-01  8.54D-01  9.38D-01  1.22D+00  3.00D+00
                    CP:  3.00D+00  3.00D+00  3.00D+00  3.00D+00  1.97D+00
                    CP:  1.55D+00  1.70D+00  1.52D+00  1.48D+00
 E= -269.936147290399     Delta-E=       -0.000000005251 Rises=F Damp=F
 DIIS: error= 8.80D-07 at cycle  15 NSaved=  15.
 NSaved=15 IEnMin=15 EnMin= -269.936147290399     IErMin=15 ErrMin= 8.80D-07
 ErrMax= 8.80D-07 EMaxC= 1.00D-01 BMatC= 1.39D-09 BMatP= 7.10D-09
 IDIUse=1 WtCom= 1.00D+00 WtEn= 0.00D+00
 Coeff-Com:  0.142D-04-0.266D-04-0.238D-03-0.443D-03 0.296D-03 0.215D-02
 Coeff-Com:  0.375D-02-0.849D-02-0.646D-02 0.130D-01 0.241D-01-0.380D-01
 Coeff-Com: -0.166D+00 0.640D-01 0.111D+01
 Coeff:      0.142D-04-0.266D-04-0.238D-03-0.443D-03 0.296D-03 0.215D-02
 Coeff:      0.375D-02-0.849D-02-0.646D-02 0.130D-01 0.241D-01-0.380D-01
 Coeff:     -0.166D+00 0.640D-01 0.111D+01
 Gap=     0.325 Goal=   None    Shift=    0.000
 Gap=     0.225 Goal=   None    Shift=    0.000
 RMSDP=2.46D-07 MaxDP=8.48D-06 DE=-5.25D-09 OVMax= 3.79D-05

 Cycle  16  Pass 1  IDiag  1:
 RMSU=  4.65D-08    CP:  9.74D-01  8.54D-01  9.38D-01  1.22D+00  3.00D+00
                    CP:  3.00D+00  3.00D+00  3.00D+00  3.00D+00  1.97D+00
                    CP:  1.55D+00  1.74D+00  1.58D+00  1.83D+00  1.43D+00
 E= -269.936147291555     Delta-E=       -0.000000001155 Rises=F Damp=F
 DIIS: error= 3.59D-07 at cycle  16 NSaved=  16.
 NSaved=16 IEnMin=16 EnMin= -269.936147291555     IErMin=16 ErrMin= 3.59D-07
 ErrMax= 3.59D-07 EMaxC= 1.00D-01 BMatC= 1.62D-10 BMatP= 1.39D-09
 IDIUse=1 WtCom= 1.00D+00 WtEn= 0.00D+00
 Coeff-Com: -0.942D-05 0.199D-04 0.367D-04 0.969D-04-0.146D-03-0.422D-03
 Coeff-Com: -0.173D-03 0.185D-02 0.870D-03-0.779D-02 0.554D-02 0.376D-01
 Coeff-Com: -0.446D-01-0.169D+00-0.651D-01 0.124D+01
 Coeff:     -0.942D-05 0.199D-04 0.367D-04 0.969D-04-0.146D-03-0.422D-03
 Coeff:     -0.173D-03 0.185D-02 0.870D-03-0.779D-02 0.554D-02 0.376D-01
 Coeff:     -0.446D-01-0.169D+00-0.651D-01 0.124D+01
 Gap=     0.325 Goal=   None    Shift=    0.000
 Gap=     0.225 Goal=   None    Shift=    0.000
 RMSDP=9.27D-08 MaxDP=3.11D-06 DE=-1.16D-09 OVMax= 1.81D-05

 Cycle  17  Pass 1  IDiag  1:
 RMSU=  2.81D-08    CP:  9.74D-01  8.54D-01  9.38D-01  1.22D+00  3.00D+00
                    CP:  3.00D+00  3.00D+00  3.00D+00  3.00D+00  1.96D+00
                    CP:  1.55D+00  1.75D+00  1.61D+00  1.95D+00  1.63D+00
                    CP:  1.45D+00
 E= -269.936147291736     Delta-E=       -0.000000000181 Rises=F Damp=F
 DIIS: error= 1.18D-07 at cycle  17 NSaved=  17.
 NSaved=17 IEnMin=17 EnMin= -269.936147291736     IErMin=17 ErrMin= 1.18D-07
 ErrMax= 1.18D-07 EMaxC= 1.00D-01 BMatC= 1.74D-11 BMatP= 1.62D-10
 IDIUse=1 WtCom= 1.00D+00 WtEn= 0.00D+00
 Coeff-Com: -0.166D-05 0.340D-05 0.223D-04 0.389D-04-0.416D-04-0.273D-03
 Coeff-Com: -0.266D-03 0.889D-03 0.692D-03-0.169D-02-0.233D-02 0.585D-02
 Coeff-Com:  0.183D-01-0.183D-01-0.152D+00 0.647D-01 0.108D+01
 Coeff:     -0.166D-05 0.340D-05 0.223D-04 0.389D-04-0.416D-04-0.273D-03
 Coeff:     -0.266D-03 0.889D-03 0.692D-03-0.169D-02-0.233D-02 0.585D-02
 Coeff:      0.183D-01-0.183D-01-0.152D+00 0.647D-01 0.108D+01
 Gap=     0.325 Goal=   None    Shift=    0.000
 Gap=     0.225 Goal=   None    Shift=    0.000
 RMSDP=2.82D-08 MaxDP=9.51D-07 DE=-1.81D-10 OVMax= 4.86D-06

 Cycle  18  Pass 1  IDiag  1:
 RMSU=  7.02D-09    CP:  9.74D-01  8.54D-01  9.38D-01  1.22D+00  3.00D+00
                    CP:  3.00D+00  3.00D+00  3.00D+00  3.00D+00  1.96D+00
                    CP:  1.55D+00  1.75D+00  1.61D+00  1.97D+00  1.68D+00
                    CP:  1.63D+00  1.27D+00
 E= -269.936147291755     Delta-E=       -0.000000000019 Rises=F Damp=F
 DIIS: error= 3.62D-08 at cycle  18 NSaved=  18.
 NSaved=18 IEnMin=18 EnMin= -269.936147291755     IErMin=18 ErrMin= 3.62D-08
 ErrMax= 3.62D-08 EMaxC= 1.00D-01 BMatC= 1.75D-12 BMatP= 1.74D-11
 IDIUse=1 WtCom= 1.00D+00 WtEn= 0.00D+00
 Coeff-Com:  0.139D-05-0.282D-05-0.656D-05-0.150D-04 0.139D-04 0.463D-04
 Coeff-Com:  0.738D-04-0.253D-03-0.132D-03 0.964D-03-0.896D-03-0.468D-02
 Coeff-Com:  0.835D-02 0.217D-01-0.381D-02-0.168D+00 0.791D-01 0.107D+01
 Coeff:      0.139D-05-0.282D-05-0.656D-05-0.150D-04 0.139D-04 0.463D-04
 Coeff:      0.738D-04-0.253D-03-0.132D-03 0.964D-03-0.896D-03-0.468D-02
 Coeff:      0.835D-02 0.217D-01-0.381D-02-0.168D+00 0.791D-01 0.107D+01
 Gap=     0.325 Goal=   None    Shift=    0.000
 Gap=     0.225 Goal=   None    Shift=    0.000
 RMSDP=7.79D-09 MaxDP=2.25D-07 DE=-1.89D-11 OVMax= 1.35D-06

 SCF Done:  E(UM062X) =  -269.936147292     A.U. after   18 cycles
             Convg  =    0.7786D-08             -V/T =  2.0038
 <Sx>= 0.0000 <Sy>= 0.0000 <Sz>= 0.5000 <S**2>= 0.7618 S= 0.5059
 <L.S>= 0.000000000000E+00
 KE= 2.689136560891D+02 PE=-9.952135142931D+02 EE= 2.748906917933D+02
 Annihilation of the first spin contaminant:
 S**2 before annihilation     0.7618,   after     0.7501
 Leave Link  502 at Thu Mar 22 13:22:18 2018, MaxMem=  671088640 cpu:    1813.3
 (Enter /shared/apps/gaussian/G09_LINUX_LINDA/g09/l801.exe)
 Range of M.O.s used for correlation:     1   251
 NBasis=   251 NAE=    22 NBE=    21 NFC=     0 NFV=     0
 NROrb=    251 NOA=    22 NOB=    21 NVA=   229 NVB=   230

 **** Warning!!: The largest alpha MO coefficient is  0.41916551D+02


 **** Warning!!: The largest beta MO coefficient is  0.46046219D+02

 Leave Link  801 at Thu Mar 22 13:22:18 2018, MaxMem=  671088640 cpu:       0.5
 (Enter /shared/apps/gaussian/G09_LINUX_LINDA/g09/l1101.exe)
 Using compressed storage, NAtomX=    14.
 Will process  15 centers per pass.
 Leave Link 1101 at Thu Mar 22 13:22:22 2018, MaxMem=  671088640 cpu:      34.3
 (Enter /shared/apps/gaussian/G09_LINUX_LINDA/g09/l1102.exe)
 Symmetrizing basis deriv contribution to polar:
 IMax=3 JMax=2 DiffMx= 0.00D+00
 Leave Link 1102 at Thu Mar 22 13:22:22 2018, MaxMem=  671088640 cpu:       1.9
 (Enter /shared/apps/gaussian/G09_LINUX_LINDA/g09/l1110.exe)
 Forming Gx(P) for the SCF density, NAtomX=    14.
 Integral derivatives from FoFDir/FoFCou, PRISM(SPDF).
 Do as many integral derivatives as possible in FoFDir.
 G2DrvN: MDV=     671088424.
 G2DrvN: will do    15 centers at a time, making    1 passes doing MaxLOS=3.
 Calling FoFCou, ICntrl=  3107 FMM=F I1Cent=   0 AccDes= 0.00D+00.
 FoFCou: FMM=F IPFlag=           0 FMFlag=      100000 FMFlg1=           0
         NFxFlg=           0 DoJE=F BraDBF=F KetDBF=F FulRan=T
         Omega=  0.000000  0.000000  1.000000  0.000000  0.000000 ICntrl=    3107 IOpCl=  1
         NMat0=    1 NMatS0=    1 NMatT0=    0 NMatD0=    1 NMtDS0=    0 NMtDT0=    0
         I1Cent=           0 NGrid=           0.
 Symmetry not used in FoFCou.
 FoFDir/FoFCou used for L=0 through L=3.
 End of G2Drv Frequency-dependent properties file   721 does not exist.
 End of G2Drv Frequency-dependent properties file   722 does not exist.
 Leave Link 1110 at Thu Mar 22 13:24:50 2018, MaxMem=  671088640 cpu:    1470.4
 (Enter /shared/apps/gaussian/G09_LINUX_LINDA/g09/l1002.exe)
 Minotr:  UHF open shell wavefunction.
          IDoAtm=11111111111111
          Direct CPHF calculation.
          Differentiating once with respect to nuclear coordinates.
          Requested convergence is 1.0D-06 RMS, and 1.0D-05 maximum.
          Secondary convergence is 1.0D-12 RMS, and 1.0D-12 maximum.
          NewPWx=T KeepS1=F KeepF1=F KeepIn=T MapXYZ=F SortEE=F KeepMc=T.
          MDV=     671088496 using IRadAn=       2.
 Generate precomputed XC quadrature information.
          Solving linear equations simultaneously, MaxMat=       0.
 Integrals replicated using symmetry in FoFDir.
 MinBra= 0 MaxBra= 3 Meth= 1.
 IRaf=       0 NMat=  45 IRICut=     112 DoRegI=T DoRafI=T ISym2E= 2 JSym2E=2.
          There are    45 degrees of freedom in the 1st order CPHF.  IDoFFX=5.
     39 vectors produced by pass  0 Test12= 2.19D-10 2.22D-07 XBig12= 2.37D-01 3.53D-01.
 AX will form    39 AO Fock derivatives at one time.
     39 vectors produced by pass  1 Test12= 2.19D-10 2.22D-07 XBig12= 2.21D-02 3.88D-02.
     39 vectors produced by pass  2 Test12= 2.19D-10 2.22D-07 XBig12= 6.72D-04 4.68D-03.
     39 vectors produced by pass  3 Test12= 2.19D-10 2.22D-07 XBig12= 6.34D-06 4.63D-04.
     39 vectors produced by pass  4 Test12= 2.19D-10 2.22D-07 XBig12= 6.87D-08 3.49D-05.
     23 vectors produced by pass  5 Test12= 2.19D-10 2.22D-07 XBig12= 4.91D-10 2.54D-06.
 Inverted reduced A of dimension   218 with in-core refinement.
 End of Minotr Frequency-dependent properties file   721 does not exist.
 End of Minotr Frequency-dependent properties file   722 does not exist.
 Leave Link 1002 at Thu Mar 22 13:30:23 2018, MaxMem=  671088640 cpu:    3324.9
 (Enter /shared/apps/gaussian/G09_LINUX_LINDA/g09/l601.exe)
 Copying SCF densities to generalized density rwf, IOpCl= 1 IROHF=0.

 **********************************************************************

            Population analysis using the SCF density.

 **********************************************************************

 Orbital symmetries:
 Alpha Orbitals:
       Occupied  (A) (A) (A) (A) (A) (A) (A) (A) (A) (A) (A) (A)
                 (A) (A) (A) (A) (A) (A) (A) (A) (A) (A)
       Virtual   (A) (A) (A) (A) (A) (A) (A) (A) (A) (A) (A) (A)
                 (A) (A) (A) (A) (A) (A) (A) (A) (A) (A) (A) (A)
                 (A) (A) (A) (A) (A) (A) (A) (A) (A) (A) (A) (A)
                 (A) (A) (A) (A) (A) (A) (A) (A) (A) (A) (A) (A)
                 (A) (A) (A) (A) (A) (A) (A) (A) (A) (A) (A) (A)
                 (A) (A) (A) (A) (A) (A) (A) (A) (A) (A) (A) (A)
                 (A) (A) (A) (A) (A) (A) (A) (A) (A) (A) (A) (A)
                 (A) (A) (A) (A) (A) (A) (A) (A) (A) (A) (A) (A)
                 (A) (A) (A) (A) (A) (A) (A) (A) (A) (A) (A) (A)
                 (A) (A) (A) (A) (A) (A) (A) (A) (A) (A) (A) (A)
                 (A) (A) (A) (A) (A) (A) (A) (A) (A) (A) (A) (A)
                 (A) (A) (A) (A) (A) (A) (A) (A) (A) (A) (A) (A)
                 (A) (A) (A) (A) (A) (A) (A) (A) (A) (A) (A) (A)
                 (A) (A) (A) (A) (A) (A) (A) (A) (A) (A) (A) (A)
                 (A) (A) (A) (A) (A) (A) (A) (A) (A) (A) (A) (A)
                 (A) (A) (A) (A) (A) (A) (A) (A) (A) (A) (A) (A)
                 (A) (A) (A) (A) (A) (A) (A) (A) (A) (A) (A) (A)
                 (A) (A) (A) (A) (A) (A) (A) (A) (A) (A) (A) (A)
                 (A) (A) (A) (A) (A) (A) (A) (A) (A) (A) (A) (A)
                 (A)
 Beta  Orbitals:
       Occupied  (A) (A) (A) (A) (A) (A) (A) (A) (A) (A) (A) (A)
                 (A) (A) (A) (A) (A) (A) (A) (A) (A)
       Virtual   (A) (A) (A) (A) (A) (A) (A) (A) (A) (A) (A) (A)
                 (A) (A) (A) (A) (A) (A) (A) (A) (A) (A) (A) (A)
                 (A) (A) (A) (A) (A) (A) (A) (A) (A) (A) (A) (A)
                 (A) (A) (A) (A) (A) (A) (A) (A) (A) (A) (A) (A)
                 (A) (A) (A) (A) (A) (A) (A) (A) (A) (A) (A) (A)
                 (A) (A) (A) (A) (A) (A) (A) (A) (A) (A) (A) (A)
                 (A) (A) (A) (A) (A) (A) (A) (A) (A) (A) (A) (A)
                 (A) (A) (A) (A) (A) (A) (A) (A) (A) (A) (A) (A)
                 (A) (A) (A) (A) (A) (A) (A) (A) (A) (A) (A) (A)
                 (A) (A) (A) (A) (A) (A) (A) (A) (A) (A) (A) (A)
                 (A) (A) (A) (A) (A) (A) (A) (A) (A) (A) (A) (A)
                 (A) (A) (A) (A) (A) (A) (A) (A) (A) (A) (A) (A)
                 (A) (A) (A) (A) (A) (A) (A) (A) (A) (A) (A) (A)
                 (A) (A) (A) (A) (A) (A) (A) (A) (A) (A) (A) (A)
                 (A) (A) (A) (A) (A) (A) (A) (A) (A) (A) (A) (A)
                 (A) (A) (A) (A) (A) (A) (A) (A) (A) (A) (A) (A)
                 (A) (A) (A) (A) (A) (A) (A) (A) (A) (A) (A) (A)
                 (A) (A) (A) (A) (A) (A) (A) (A) (A) (A) (A) (A)
                 (A) (A) (A) (A) (A) (A) (A) (A) (A) (A) (A) (A)
                 (A) (A)
 The electronic state is 2-A.
 Alpha  occ. eigenvalues --  -19.72448 -19.69252 -10.54380 -10.53947 -10.52547
 Alpha  occ. eigenvalues --   -1.32398  -1.00123  -0.88220  -0.76771  -0.69338
 Alpha  occ. eigenvalues --   -0.65076  -0.58263  -0.56890  -0.52565  -0.50686
 Alpha  occ. eigenvalues --   -0.46169  -0.43368  -0.40372  -0.39738  -0.39568
 Alpha  occ. eigenvalues --   -0.36570  -0.31323
 Alpha virt. eigenvalues --    0.01192   0.02635   0.03692   0.04153   0.06340
 Alpha virt. eigenvalues --    0.07251   0.07731   0.08383   0.08905   0.10477
 Alpha virt. eigenvalues --    0.11641   0.11763   0.13442   0.16340   0.17556
 Alpha virt. eigenvalues --    0.18519   0.19203   0.19546   0.21100   0.21772
 Alpha virt. eigenvalues --    0.23692   0.24231   0.25517   0.25990   0.26787
 Alpha virt. eigenvalues --    0.28030   0.28685   0.29331   0.31259   0.34628
 Alpha virt. eigenvalues --    0.35810   0.37845   0.43061   0.43748   0.45498
 Alpha virt. eigenvalues --    0.47120   0.49079   0.51003   0.51767   0.53794
 Alpha virt. eigenvalues --    0.55426   0.56014   0.57613   0.59311   0.59520
 Alpha virt. eigenvalues --    0.61248   0.61519   0.62783   0.64627   0.65740
 Alpha virt. eigenvalues --    0.68444   0.68543   0.73022   0.77187   0.77779
 Alpha virt. eigenvalues --    0.80525   0.82548   0.83611   0.85268   0.88954
 Alpha virt. eigenvalues --    0.92288   0.93127   0.95558   0.98964   1.00749
 Alpha virt. eigenvalues --    1.02110   1.04912   1.07004   1.08674   1.09957
 Alpha virt. eigenvalues --    1.13648   1.15101   1.15673   1.17139   1.18047
 Alpha virt. eigenvalues --    1.20475   1.21387   1.23616   1.23725   1.27052
 Alpha virt. eigenvalues --    1.29969   1.30723   1.33328   1.34363   1.35772
 Alpha virt. eigenvalues --    1.36388   1.37586   1.38083   1.40112   1.44443
 Alpha virt. eigenvalues --    1.45562   1.46936   1.49064   1.49680   1.53417
 Alpha virt. eigenvalues --    1.55338   1.56526   1.56864   1.58402   1.60123
 Alpha virt. eigenvalues --    1.60478   1.62395   1.65843   1.67350   1.77914
 Alpha virt. eigenvalues --    1.84466   1.89129   2.05349   2.15964   2.22218
 Alpha virt. eigenvalues --    2.33807   2.39707   2.44680   2.45497   2.49488
 Alpha virt. eigenvalues --    2.52174   2.57782   2.61728   2.63154   2.67949
 Alpha virt. eigenvalues --    2.71279   2.75081   2.77781   2.82677   2.86628
 Alpha virt. eigenvalues --    2.88402   2.90214   2.95525   2.99230   3.01953
 Alpha virt. eigenvalues --    3.05450   3.06288   3.08773   3.13300   3.14837
 Alpha virt. eigenvalues --    3.20762   3.24048   3.28046   3.30942   3.33486
 Alpha virt. eigenvalues --    3.34805   3.36421   3.43759   3.47893   3.50111
 Alpha virt. eigenvalues --    3.54299   3.57634   3.58282   3.59747   3.61551
 Alpha virt. eigenvalues --    3.63372   3.67511   3.69861   3.75175   3.78684
 Alpha virt. eigenvalues --    3.79812   3.82037   3.84576   3.86173   3.91756
 Alpha virt. eigenvalues --    3.95049   3.96654   3.98131   3.99901   4.04019
 Alpha virt. eigenvalues --    4.04638   4.07421   4.10671   4.15450   4.16514
 Alpha virt. eigenvalues --    4.19102   4.19502   4.22166   4.26895   4.29626
 Alpha virt. eigenvalues --    4.35064   4.36478   4.41752   4.44650   4.48210
 Alpha virt. eigenvalues --    4.51063   4.53834   4.55423   4.55847   4.58981
 Alpha virt. eigenvalues --    4.62891   4.66673   4.72143   4.79086   4.83851
 Alpha virt. eigenvalues --    4.87243   4.99833   5.04565   5.06687   5.14631
 Alpha virt. eigenvalues --    5.17237   5.18324   5.21137   5.22990   5.28508
 Alpha virt. eigenvalues --    5.36798   5.37783   5.40253   5.49923   5.51194
 Alpha virt. eigenvalues --    5.53655   5.56494   5.59234   5.64994   5.90766
 Alpha virt. eigenvalues --    6.35313   6.67479   6.73312   6.78821   6.88110
 Alpha virt. eigenvalues --    6.91633   6.98398   7.01868   7.14787   7.30241
 Alpha virt. eigenvalues --    7.51733   7.55532   7.89888   7.99795  24.16433
 Alpha virt. eigenvalues --   24.27104  24.39241  49.96151  50.01774
  Beta  occ. eigenvalues --  -19.72038 -19.68188 -10.54004 -10.53948 -10.52539
  Beta  occ. eigenvalues --   -1.30232  -0.96916  -0.87677  -0.75886  -0.67777
  Beta  occ. eigenvalues --   -0.64129  -0.57004  -0.52017  -0.51209  -0.50073
  Beta  occ. eigenvalues --   -0.45750  -0.41919  -0.39483  -0.39211  -0.37374
  Beta  occ. eigenvalues --   -0.32323
  Beta virt. eigenvalues --   -0.09823   0.01362   0.02694   0.03769   0.04191
  Beta virt. eigenvalues --    0.06416   0.07310   0.07794   0.08509   0.08959
  Beta virt. eigenvalues --    0.10675   0.11689   0.11819   0.13677   0.16883
  Beta virt. eigenvalues --    0.17720   0.19009   0.19452   0.19588   0.21645
  Beta virt. eigenvalues --    0.22159   0.23852   0.24496   0.25892   0.26397
  Beta virt. eigenvalues --    0.26964   0.28363   0.28804   0.29626   0.31830
  Beta virt. eigenvalues --    0.34820   0.35954   0.38919   0.43175   0.44003
  Beta virt. eigenvalues --    0.45655   0.47341   0.49415   0.51322   0.51940
  Beta virt. eigenvalues --    0.53988   0.55863   0.56120   0.57802   0.59456
  Beta virt. eigenvalues --    0.60059   0.61310   0.61902   0.63081   0.65083
  Beta virt. eigenvalues --    0.65922   0.68391   0.68565   0.73185   0.77464
  Beta virt. eigenvalues --    0.78075   0.80577   0.82631   0.83692   0.85472
  Beta virt. eigenvalues --    0.89096   0.92424   0.93530   0.95620   0.99432
  Beta virt. eigenvalues --    1.01184   1.02255   1.05850   1.07643   1.09076
  Beta virt. eigenvalues --    1.09948   1.13922   1.15405   1.16328   1.17737
  Beta virt. eigenvalues --    1.18385   1.20718   1.21632   1.23837   1.24210
  Beta virt. eigenvalues --    1.27199   1.30290   1.31175   1.33871   1.34568
  Beta virt. eigenvalues --    1.36274   1.36655   1.37900   1.38621   1.40628
  Beta virt. eigenvalues --    1.44541   1.45665   1.47273   1.49228   1.50150
  Beta virt. eigenvalues --    1.53631   1.55792   1.56982   1.57394   1.58886
  Beta virt. eigenvalues --    1.60539   1.60924   1.62514   1.65992   1.67533
  Beta virt. eigenvalues --    1.78261   1.85767   1.90662   2.06291   2.16484
  Beta virt. eigenvalues --    2.22632   2.34290   2.39706   2.44884   2.45713
  Beta virt. eigenvalues --    2.50178   2.52644   2.57945   2.62116   2.63523
  Beta virt. eigenvalues --    2.68064   2.71135   2.75507   2.77611   2.82848
  Beta virt. eigenvalues --    2.86765   2.88881   2.91189   2.95720   2.99320
  Beta virt. eigenvalues --    3.03002   3.05958   3.07395   3.09171   3.14027
  Beta virt. eigenvalues --    3.15081   3.22131   3.24281   3.28769   3.31628
  Beta virt. eigenvalues --    3.34151   3.35379   3.36976   3.44578   3.50626
  Beta virt. eigenvalues --    3.50893   3.56766   3.58625   3.59336   3.60649
  Beta virt. eigenvalues --    3.62383   3.65118   3.67457   3.71164   3.75648
  Beta virt. eigenvalues --    3.79723   3.80238   3.82624   3.85173   3.86794
  Beta virt. eigenvalues --    3.92494   3.95266   3.97016   3.98245   4.00012
  Beta virt. eigenvalues --    4.04082   4.04776   4.08088   4.11386   4.15949
  Beta virt. eigenvalues --    4.17005   4.19419   4.19621   4.22380   4.27602
  Beta virt. eigenvalues --    4.30456   4.35490   4.37178   4.42454   4.45254
  Beta virt. eigenvalues --    4.48523   4.51389   4.54255   4.56033   4.56256
  Beta virt. eigenvalues --    4.59431   4.63326   4.67468   4.72519   4.79462
  Beta virt. eigenvalues --    4.84710   4.88013   5.01249   5.06198   5.08384
  Beta virt. eigenvalues --    5.15458   5.18023   5.19762   5.22657   5.24106
  Beta virt. eigenvalues --    5.28760   5.37417   5.39272   5.40889   5.50101
  Beta virt. eigenvalues --    5.52936   5.54531   5.56836   5.59419   5.65584
  Beta virt. eigenvalues --    5.91318   6.35684   6.67852   6.77219   6.84090
  Beta virt. eigenvalues --    6.88529   6.93769   7.00756   7.04497   7.15595
  Beta virt. eigenvalues --    7.31057   7.51634   7.60080   7.89997   8.01173
  Beta virt. eigenvalues --   24.16909  24.27308  24.39339  49.95811  50.01237
          Condensed to atoms (all electrons):
              1          2          3          4          5          6
     1  C    5.298545   0.130837   0.132571   0.459718   0.430509  -0.037775
     2  C    0.130837   5.430212  -0.038592  -0.040741  -0.042827   0.327223
     3  C    0.132571  -0.038592   5.164553  -0.060147  -0.030350   0.003514
     4  H    0.459718  -0.040741  -0.060147   0.530861  -0.029671  -0.005081
     5  H    0.430509  -0.042827  -0.030350  -0.029671   0.536537   0.004897
     6  H   -0.037775   0.327223   0.003514  -0.005081   0.004897   0.458237
     7  H   -0.048931   0.397900   0.022782  -0.006004  -0.003885  -0.014348
     8  H   -0.024855   0.408684  -0.017915   0.005793  -0.007147  -0.029283
     9  H   -0.018499  -0.015476   0.409117   0.006088  -0.008264  -0.001599
    10  H   -0.057265   0.026036   0.413447  -0.004209  -0.004812  -0.000177
    11  H   -0.016680  -0.024475   0.416619  -0.006459   0.005572   0.003446
    12  O    0.007815   0.040440  -0.009107  -0.001598   0.000256   0.022682
    13  O    0.005743  -0.074842  -0.012971   0.001980  -0.000753  -0.043280
    14  H    0.002193  -0.001619   0.000151  -0.000095  -0.000026  -0.000461
              7          8          9         10         11         12
     1  C   -0.048931  -0.024855  -0.018499  -0.057265  -0.016680   0.007815
     2  C    0.397900   0.408684  -0.015476   0.026036  -0.024475   0.040440
     3  C    0.022782  -0.017915   0.409117   0.413447   0.416619  -0.009107
     4  H   -0.006004   0.005793   0.006088  -0.004209  -0.006459  -0.001598
     5  H   -0.003885  -0.007147  -0.008264  -0.004812   0.005572   0.000256
     6  H   -0.014348  -0.029283  -0.001599  -0.000177   0.003446   0.022682
     7  H    0.534550  -0.023128  -0.000052  -0.000396   0.000025  -0.001026
     8  H   -0.023128   0.519472   0.002797  -0.000090  -0.000186  -0.001360
     9  H   -0.000052   0.002797   0.554352  -0.025214  -0.031840  -0.000075
    10  H   -0.000396  -0.000090  -0.025214   0.549845  -0.025167  -0.000011
    11  H    0.000025  -0.000186  -0.031840  -0.025167   0.529471   0.000786
    12  O   -0.001026  -0.001360  -0.000075  -0.000011   0.000786   7.847551
    13  O    0.001168   0.006838   0.000116   0.000361   0.001053  -0.002163
    14  H    0.000189  -0.000068   0.000001   0.000002  -0.000021   0.246830
             13         14
     1  C    0.005743   0.002193
     2  C   -0.074842  -0.001619
     3  C   -0.012971   0.000151
     4  H    0.001980  -0.000095
     5  H   -0.000753  -0.000026
     6  H   -0.043280  -0.000461
     7  H    0.001168   0.000189
     8  H    0.006838  -0.000068
     9  H    0.000116   0.000001
    10  H    0.000361   0.000002
    11  H    0.001053  -0.000021
    12  O   -0.002163   0.246830
    13  O    8.441744  -0.063885
    14  H   -0.063885   0.541504
 Mulliken atomic charges:
              1
     1  C   -0.263928
     2  C   -0.522762
     3  C   -0.393673
     4  H    0.149564
     5  H    0.149964
     6  H    0.312006
     7  H    0.141156
     8  H    0.160447
     9  H    0.128546
    10  H    0.127648
    11  H    0.147855
    12  O   -0.151020
    13  O   -0.261109
    14  H    0.275305
 Sum of Mulliken atomic charges =   0.00000
 Mulliken charges with hydrogens summed into heavy atoms:
              1
     1  C    0.035600
     2  C   -0.221159
     3  C    0.010376
    12  O    0.124285
    13  O    0.050898
 Sum of Mulliken charges with hydrogens summed into heavy atoms =   0.00000
          Atomic-Atomic Spin Densities.
              1          2          3          4          5          6
     1  C   -0.013007  -0.025042   0.007554   0.005250   0.007341  -0.001011
     2  C   -0.025042   0.475495  -0.008368  -0.005587  -0.009888   0.074550
     3  C    0.007554  -0.008368   0.006344   0.000241  -0.001225  -0.002328
     4  H    0.005250  -0.005587   0.000241   0.006235  -0.003623  -0.002051
     5  H    0.007341  -0.009888  -0.001225  -0.003623   0.033981   0.001266
     6  H   -0.001011   0.074550  -0.002328  -0.002051   0.001266  -0.055903
     7  H    0.000158  -0.003906   0.000778   0.000782  -0.001139  -0.000234
     8  H    0.006790  -0.009885   0.000988   0.000251  -0.002138  -0.001876
     9  H    0.000217   0.000427  -0.000673   0.000112  -0.000562  -0.000437
    10  H   -0.001604   0.001045   0.000803   0.000016   0.000260   0.000052
    11  H    0.004144  -0.002371  -0.001282  -0.000306   0.000078   0.000858
    12  O   -0.001785   0.019748  -0.000549  -0.000458   0.000155   0.011623
    13  O    0.006291  -0.093444   0.002391   0.001957  -0.000941  -0.034386
    14  H   -0.000666   0.003094  -0.000070  -0.000112   0.000025   0.004675
              7          8          9         10         11         12
     1  C    0.000158   0.006790   0.000217  -0.001604   0.004144  -0.001785
     2  C   -0.003906  -0.009885   0.000427   0.001045  -0.002371   0.019748
     3  C    0.000778   0.000988  -0.000673   0.000803  -0.001282  -0.000549
     4  H    0.000782   0.000251   0.000112   0.000016  -0.000306  -0.000458
     5  H   -0.001139  -0.002138  -0.000562   0.000260   0.000078   0.000155
     6  H   -0.000234  -0.001876  -0.000437   0.000052   0.000858   0.011623
     7  H   -0.021327   0.003463   0.000033  -0.000007   0.000027  -0.001025
     8  H    0.003463  -0.009667   0.000154  -0.000021  -0.000043  -0.000611
     9  H    0.000033   0.000154   0.000275   0.000031  -0.000190  -0.000033
    10  H   -0.000007  -0.000021   0.000031  -0.001817   0.000530   0.000019
    11  H    0.000027  -0.000043  -0.000190   0.000530  -0.003164  -0.000139
    12  O   -0.001025  -0.000611  -0.000033   0.000019  -0.000139   0.229767
    13  O    0.004960   0.002844   0.000115   0.000020   0.000010  -0.099760
    14  H   -0.000225  -0.000038  -0.000001   0.000000   0.000025   0.003268
             13         14
     1  C    0.006291  -0.000666
     2  C   -0.093444   0.003094
     3  C    0.002391  -0.000070
     4  H    0.001957  -0.000112
     5  H   -0.000941   0.000025
     6  H   -0.034386   0.004675
     7  H    0.004960  -0.000225
     8  H    0.002844  -0.000038
     9  H    0.000115  -0.000001
    10  H    0.000020   0.000000
    11  H    0.000010   0.000025
    12  O   -0.099760   0.003268
    13  O    0.658400  -0.010074
    14  H   -0.010074  -0.004226
 Mulliken atomic spin densities:
              1
     1  C   -0.005370
     2  C    0.415869
     3  C    0.004604
     4  H    0.002707
     5  H    0.023589
     6  H   -0.005201
     7  H   -0.017662
     8  H   -0.009789
     9  H   -0.000532
    10  H   -0.000672
    11  H   -0.001823
    12  O    0.160221
    13  O    0.438383
    14  H   -0.004324
 Sum of Mulliken atomic spin densities =   1.00000
 APT atomic charges:
              1
     1  C   -0.738345
     2  C   -1.003315
     3  C   -1.116528
     4  H    0.254490
     5  H    0.545485
     6  H    0.242725
     7  H    0.398967
     8  H    0.426077
     9  H    0.397581
    10  H    0.520698
    11  H    0.162787
    12  O   -0.402557
    13  O   -0.169708
    14  H    0.481642
 Sum of APT charges=   0.00000
 APT Atomic charges with hydrogens summed into heavy atoms:
              1
     1  C    0.061631
     2  C   -0.178272
     3  C   -0.035462
     4  H    0.000000
     5  H    0.000000
     6  H    0.000000
     7  H    0.000000
     8  H    0.000000
     9  H    0.000000
    10  H    0.000000
    11  H    0.000000
    12  O    0.079085
    13  O    0.073017
    14  H    0.000000
 Sum of APT charges=   0.00000
 Electronic spatial extent (au):  <R**2>=            728.7284
 Charge=              0.0000 electrons
 Dipole moment (field-independent basis, Debye):
    X=              0.5620    Y=              1.0587    Z=              1.9329  Tot=              2.2744
 Quadrupole moment (field-independent basis, Debye-Ang):
   XX=            -33.2934   YY=            -33.7941   ZZ=            -31.1957
   XY=             -1.1298   XZ=             -5.0226   YZ=              0.1151
 Traceless Quadrupole moment (field-independent basis, Debye-Ang):
   XX=             -0.5323   YY=             -1.0331   ZZ=              1.5654
   XY=             -1.1298   XZ=             -5.0226   YZ=              0.1151
 Octapole moment (field-independent basis, Debye-Ang**2):
  XXX=            -14.8706  YYY=             -1.1385  ZZZ=              3.7413  XYY=             -6.0288
  XXY=              3.8420  XXZ=             12.5770  XZZ=            -11.4206  YZZ=             -0.0608
  YYZ=              1.0848  XYZ=             -1.6775
 Hexadecapole moment (field-independent basis, Debye-Ang**3):
 XXXX=           -686.0078 YYYY=           -176.2504 ZZZZ=            -80.4422 XXXY=             -0.7934
 XXXZ=            -33.3861 YYYX=              5.4946 YYYZ=              1.6709 ZZZX=            -13.4856
 ZZZY=             -0.7844 XXYY=           -144.3455 XXZZ=           -109.6710 YYZZ=            -43.6167
 XXYZ=              0.6429 YYXZ=              0.4660 ZZXY=              0.5724
 N-N= 1.814730191190D+02 E-N=-1.484541971323D+03  KE= 4.019753979831D+02
  Exact polarizability:   0.000   0.000   0.000   0.000   0.000   0.000
 Approx polarizability:  94.360  16.642  62.910  -5.519  -1.004  58.661
                          Isotropic Fermi Contact Couplings
        Atom                 a.u.       MegaHertz       Gauss      10(-4) cm-1
     1  C(13)             -0.00612      -6.87887      -2.45455      -2.29454
     2  C(13)              0.16082     180.79559      64.51236      60.30692
     3  C(13)              0.00639       7.18920       2.56528       2.39806
     4  H(1)               0.00199       8.90043       3.17590       2.96886
     5  H(1)               0.01300      58.09592      20.73007      19.37871
     6  H(1)              -0.02676    -119.61006     -42.67984     -39.89762
     7  H(1)              -0.00397     -17.75298      -6.33470      -5.92176
     8  H(1)               0.00098       4.38664       1.56526       1.46323
     9  H(1)              -0.00013      -0.56681      -0.20225      -0.18907
    10  H(1)              -0.00019      -0.85814      -0.30621      -0.28625
    11  H(1)              -0.00023      -1.04560      -0.37310      -0.34878
    12  O(17)              0.00855      -5.18548      -1.85031      -1.72969
    13  O(17)              0.08666     -52.53145     -18.74453     -17.52261
    14  H(1)              -0.00167      -7.46311      -2.66302      -2.48943
 --------------------------------------------------------
       Center         ----  Spin Dipole Couplings  ----
                      3XX-RR        3YY-RR        3ZZ-RR
 --------------------------------------------------------
     1   Atom        0.022106     -0.014081     -0.008024
     2   Atom        0.274041     -0.047142     -0.226899
     3   Atom        0.004651      0.001245     -0.005895
     4   Atom       -0.001197     -0.004688      0.005885
     5   Atom        0.005749     -0.002218     -0.003531
     6   Atom        0.135190     -0.037589     -0.097601
     7   Atom       -0.007031      0.021829     -0.014798
     8   Atom       -0.004669     -0.019633      0.024302
     9   Atom        0.003122     -0.000508     -0.002614
    10   Atom        0.001574      0.000740     -0.002315
    11   Atom        0.002421      0.003980     -0.006401
    12   Atom       -0.443130      0.771607     -0.328477
    13   Atom       -1.035578      2.154763     -1.119185
    14   Atom       -0.020763     -0.017519      0.038281
 --------------------------------------------------------
                        XY            XZ            YZ
 --------------------------------------------------------
     1   Atom        0.001537      0.016765     -0.000514
     2   Atom        0.310701      0.074236      0.047501
     3   Atom       -0.007852     -0.001050      0.000945
     4   Atom       -0.000450      0.005813     -0.004215
     5   Atom        0.001865      0.004937     -0.000889
     6   Atom        0.119513     -0.021464     -0.007513
     7   Atom       -0.001225     -0.005368      0.025876
     8   Atom        0.014983     -0.016889     -0.008681
     9   Atom       -0.003623     -0.002190      0.001769
    10   Atom       -0.002639      0.001079     -0.000799
    11   Atom       -0.005302      0.000619      0.000055
    12   Atom        0.424844     -0.077465     -0.308301
    13   Atom        0.406540      0.024095      0.044317
    14   Atom        0.003174     -0.008793      0.009261
 --------------------------------------------------------


 ---------------------------------------------------------------------------------
              Anisotropic Spin Dipole Couplings in Principal Axis System
 ---------------------------------------------------------------------------------

       Atom             a.u.   MegaHertz   Gauss  10(-4) cm-1        Axes

              Baa    -0.0161    -2.161    -0.771    -0.721 -0.3682  0.4822  0.7949
     1 C(13)  Bbb    -0.0135    -1.813    -0.647    -0.605  0.1742  0.8756 -0.4504
              Bcc     0.0296     3.974     1.418     1.326  0.9133  0.0274  0.4064
 
              Baa    -0.2393   -32.106   -11.456   -10.710  0.1977 -0.5245  0.8281
     2 C(13)  Bbb    -0.2350   -31.536   -11.253   -10.519 -0.4929  0.6770  0.5465
              Bcc     0.4743    63.643    22.709    21.229  0.8473  0.5163  0.1247
 
              Baa    -0.0060    -0.808    -0.288    -0.269  0.0132 -0.1149  0.9933
     3 C(13)  Bbb    -0.0051    -0.682    -0.243    -0.227  0.6312  0.7714  0.0809
              Bcc     0.0111     1.489     0.531     0.497  0.7755 -0.6259 -0.0827
 
              Baa    -0.0068    -3.640    -1.299    -1.214 -0.3987  0.8003  0.4478
     4 H(1)   Bbb    -0.0034    -1.794    -0.640    -0.598  0.8004  0.5421 -0.2561
              Bcc     0.0102     5.434     1.939     1.812  0.4477 -0.2563  0.8567
 
              Baa    -0.0063    -3.352    -1.196    -1.118 -0.4013  0.3678  0.8389
     5 H(1)   Bbb    -0.0018    -0.952    -0.340    -0.318  0.0278  0.9203 -0.3902
              Bcc     0.0081     4.304     1.536     1.436  0.9155  0.1332  0.3795
 
              Baa    -0.1021   -54.464   -19.434   -18.167  0.3542 -0.5700  0.7414
     6 H(1)   Bbb    -0.0959   -51.171   -18.259   -17.069 -0.2926  0.6854  0.6668
              Bcc     0.1980   105.635    37.693    35.236  0.8882  0.4531 -0.0760
 
              Baa    -0.0290   -15.472    -5.521    -5.161  0.1896 -0.4418  0.8768
     7 H(1)   Bbb    -0.0065    -3.477    -1.241    -1.160  0.9783  0.1612 -0.1303
              Bcc     0.0355    18.949     6.762     6.321 -0.0838  0.8825  0.4628
 
              Baa    -0.0290   -15.447    -5.512    -5.152 -0.5424  0.8394 -0.0352
     8 H(1)   Bbb    -0.0069    -3.663    -1.307    -1.222  0.7086  0.4796  0.5176
              Bcc     0.0358    19.109     6.819     6.374 -0.4513 -0.2558  0.8549
 
              Baa    -0.0036    -1.934    -0.690    -0.645  0.0472 -0.4509  0.8913
     9 H(1)   Bbb    -0.0026    -1.396    -0.498    -0.466  0.5913  0.7318  0.3389
              Bcc     0.0062     3.330     1.188     1.111  0.8050 -0.5111 -0.3012
 
              Baa    -0.0026    -1.388    -0.495    -0.463 -0.2087  0.0685  0.9756
    10 H(1)   Bbb    -0.0015    -0.804    -0.287    -0.268  0.6318  0.7709  0.0810
              Bcc     0.0041     2.192     0.782     0.731  0.7465 -0.6333  0.2042
 
              Baa    -0.0065    -3.451    -1.232    -1.151 -0.1035 -0.0578  0.9929
    11 H(1)   Bbb    -0.0021    -1.120    -0.400    -0.374  0.7491  0.6523  0.1160
              Bcc     0.0086     4.571     1.631     1.525 -0.6544  0.7558 -0.0243
 
              Baa    -0.5789    41.888    14.947    13.972  0.9420 -0.3197 -0.1021
    12 O(17)  Bbb    -0.4034    29.189    10.415     9.736  0.1700  0.1921  0.9665
              Bcc     0.9823   -71.077   -25.362   -23.709  0.2893  0.9278 -0.2353
 
              Baa    -1.1280    81.622    29.125    27.226 -0.4041  0.0377  0.9139
    13 O(17)  Bbb    -1.0784    78.033    27.844    26.029  0.9062 -0.1195  0.4056
              Bcc     2.2064  -159.655   -56.969   -53.255  0.1245  0.9921  0.0141
 
              Baa    -0.0251   -13.417    -4.788    -4.476  0.7999 -0.5680  0.1938
    14 H(1)   Bbb    -0.0157    -8.388    -2.993    -2.798  0.5855  0.8095 -0.0435
              Bcc     0.0409    21.805     7.781     7.273 -0.1322  0.1483  0.9801
 

 ---------------------------------------------------------------------------------

 No NMR shielding tensors so no spin-rotation constants.
 Leave Link  601 at Thu Mar 22 13:30:26 2018, MaxMem=  671088640 cpu:      20.6
 (Enter /shared/apps/gaussian/G09_LINUX_LINDA/g09/l701.exe)
 Compute integral second derivatives.
 ... and contract with generalized density number  0.
 Leave Link  701 at Thu Mar 22 13:30:29 2018, MaxMem=  671088640 cpu:      24.3
 (Enter /shared/apps/gaussian/G09_LINUX_LINDA/g09/l702.exe)
 L702 exits ... SP integral derivatives will be done elsewhere.
 Leave Link  702 at Thu Mar 22 13:30:29 2018, MaxMem=  671088640 cpu:       0.2
 (Enter /shared/apps/gaussian/G09_LINUX_LINDA/g09/l703.exe)
 Compute integral second derivatives, UseDBF=F ICtDFT=           0.
 Integral derivatives from FoFDir, PRISM(SPDF).
 Calling FoFJK, ICntrl=    100147 FMM=F ISym2X=0 I1Cent= 0 IOpClX= 1 NMat=1 NMatS=1 NMatT=0.
 FoFCou: FMM=F IPFlag=           0 FMFlag=      100000 FMFlg1=         800
         NFxFlg=           0 DoJE=F BraDBF=F KetDBF=F FulRan=T
         Omega=  0.000000  0.000000  1.000000  0.000000  0.000000 ICntrl=  100147 IOpCl=  1
         NMat0=    1 NMatS0=    1 NMatT0=    0 NMatD0=    1 NMtDS0=    0 NMtDT0=    0
         I1Cent=           0 NGrid=           0.
 Symmetry not used in FoFCou.
 Leave Link  703 at Thu Mar 22 13:32:31 2018, MaxMem=  671088640 cpu:    1215.7
 (Enter /shared/apps/gaussian/G09_LINUX_LINDA/g09/l716.exe)
 Dipole        = 2.21122820D-01 4.16534620D-01 7.60444165D-01
 Polarizability= 0.00000000D+00 0.00000000D+00 0.00000000D+00
                 0.00000000D+00 0.00000000D+00 0.00000000D+00
 ***** Axes restored to original set *****
 -------------------------------------------------------------------
 Center     Atomic                   Forces (Hartrees/Bohr)
 Number     Number              X              Y              Z
 -------------------------------------------------------------------
      1        6           0.010148917    0.005650024   -0.000166390
      2        6          -0.003270754   -0.014283404   -0.000570302
      3        6          -0.006772253    0.008401511    0.000496737
      4        1          -0.007489228   -0.005520034   -0.007602949
      5        1           0.009865139    0.005189903   -0.000687259
      6        1          -0.031290320   -0.057470351    0.015662068
      7        1           0.003274901    0.010461093   -0.010270662
      8        1           0.010850897    0.007116085    0.005696873
      9        1           0.006359764    0.005904702    0.009755793
     10        1           0.007557920   -0.003830118   -0.010131832
     11        1          -0.010592527   -0.008076784    0.001827204
     12        8           0.038857693   -0.031722701    0.033005699
     13        8          -0.030800575    0.066965388   -0.019795594
     14        1           0.003300427    0.011214686   -0.017219386
 -------------------------------------------------------------------
 Cartesian Forces:  Max     0.066965388 RMS     0.019566062
 Leave Link  716 at Thu Mar 22 13:32:31 2018, MaxMem=  671088640 cpu:       2.0
 (Enter /shared/apps/gaussian/G09_LINUX_LINDA/g09/l103.exe)

 GradGradGradGradGradGradGradGradGradGradGradGradGradGradGradGradGradGrad
 Berny optimization.
 Red2BG is reusing G-inverse.
 Internal  Forces:  Max     0.057672902 RMS     0.012930719
 Search for a saddle point.
 Step number   1 out of a maximum of   67
 All quantities printed in internal units (Hartrees-Bohrs-Radians)
 Swaping is turned off.
 Second derivative matrix not updated -- analytic derivatives used.
 ITU=  0
     Eigenvalues ---   -0.15486  -0.00144   0.00044   0.00206   0.00277
     Eigenvalues ---    0.01337   0.02298   0.03264   0.03534   0.03784
     Eigenvalues ---    0.03857   0.04464   0.04544   0.06312   0.06454
     Eigenvalues ---    0.07657   0.09234   0.10280   0.12144   0.12506
     Eigenvalues ---    0.13549   0.15846   0.17333   0.20726   0.22238
     Eigenvalues ---    0.28055   0.29918   0.30042   0.30459   0.30617
     Eigenvalues ---    0.30741   0.31002   0.31361   0.32700   0.42579
     Eigenvalues ---    0.51357
 Eigenvectors required to have negative eigenvalues:
                          R11       R5        A21       R12       A11
   1                    0.67007  -0.53582   0.47486  -0.11735   0.05149
                          A9        D9        D5        D3        A8
   1                   -0.04670  -0.04439   0.04350  -0.04257  -0.04131
 Eigenvalue     2 is  -1.44D-03 should be greater than     0.000000 Eigenvector:
                          D22       A19       D8        D9        D5
   1                    0.97742   0.13587  -0.05124  -0.04819  -0.04696
                          D2        D6        D3        D7        D4
   1                   -0.04491  -0.04390  -0.04185  -0.04071  -0.03642
 RFO step:  Lambda0=2.179978904D-04 Lambda=-5.13138890D-02.
 Linear search not attempted -- option 19 set.
 Maximum step size (   0.300) exceeded in Quadratic search.
    -- Step size scaled by   0.480
 Iteration  1 RMS(Cart)=  0.10059832 RMS(Int)=  0.04005370
 Iteration  2 RMS(Cart)=  0.06617704 RMS(Int)=  0.01356715
 Iteration  3 RMS(Cart)=  0.03337608 RMS(Int)=  0.00119754
 Iteration  4 RMS(Cart)=  0.00165818 RMS(Int)=  0.00017445
 Iteration  5 RMS(Cart)=  0.00000220 RMS(Int)=  0.00017445
 Iteration  6 RMS(Cart)=  0.00000000 RMS(Int)=  0.00017445
 Variable       Old X    -DE/DX   Delta X   Delta X   Delta X     New X
                                 (Linear)    (Quad)   (Total)
    R1        2.88028  -0.00565   0.00000  -0.00993  -0.00993   2.87035
    R2        2.88182   0.00212   0.00000   0.00185   0.00185   2.88367
    R3        2.09962  -0.01150   0.00000  -0.01690  -0.01690   2.08272
    R4        2.10023  -0.01072   0.00000  -0.01313  -0.01313   2.08709
    R5        2.58647  -0.02472   0.00000  -0.10311  -0.10311   2.48336
    R6        2.09831  -0.01229   0.00000  -0.01694  -0.01694   2.08136
    R7        2.09926  -0.01202   0.00000  -0.01788  -0.01788   2.08138
    R8        2.09938  -0.01289   0.00000  -0.01679  -0.01679   2.08259
    R9        2.09842  -0.01262   0.00000  -0.01708  -0.01708   2.08134
   R10        2.09928  -0.01333   0.00000  -0.01694  -0.01694   2.08235
   R11        2.19589   0.03992   0.00000   0.07643   0.07643   2.27233
   R12        2.48699   0.04196   0.00000   0.02692   0.02692   2.51391
   R13        1.87124  -0.01930   0.00000  -0.02192  -0.02192   1.84932
    A1        1.93979   0.00407   0.00000   0.00558   0.00558   1.94537
    A2        1.90495  -0.00005   0.00000   0.00145   0.00143   1.90638
    A3        1.90868  -0.00269   0.00000  -0.00681  -0.00681   1.90187
    A4        1.90685  -0.00084   0.00000   0.00174   0.00173   1.90857
    A5        1.90881   0.00036   0.00000   0.00225   0.00227   1.91108
    A6        1.89418  -0.00096   0.00000  -0.00445  -0.00446   1.88972
    A7        1.91986  -0.01045   0.00000  -0.02807  -0.02792   1.89193
    A8        1.91292   0.00965   0.00000   0.02908   0.02862   1.94154
    A9        1.92619   0.00685   0.00000   0.02129   0.02084   1.94703
   A10        1.89841  -0.00260   0.00000  -0.01904  -0.01877   1.87964
   A11        1.90854  -0.00148   0.00000  -0.01091  -0.01074   1.89780
   A12        1.89753  -0.00201   0.00000   0.00742   0.00662   1.90416
   A13        1.92567   0.00118   0.00000   0.00453   0.00451   1.93017
   A14        1.91170   0.00550   0.00000   0.01066   0.01063   1.92233
   A15        1.92590   0.00067   0.00000   0.00071   0.00071   1.92660
[...]
   D20       -3.05079   0.00000   0.00000   0.00030   0.00030  -3.05050
   D21        1.18994   0.00000   0.00000   0.00029   0.00029   1.19023
   D22       -0.71486  -0.00001   0.00000  -0.00058  -0.00058  -0.71544
   D23       -1.69793   0.00000   0.00000  -0.00008  -0.00008  -1.69802
         Item               Value     Threshold  Converged?
 Maximum Force            0.000008     0.000450     YES
 RMS     Force            0.000002     0.000300     YES
 Maximum Displacement     0.000803     0.001800     YES
 RMS     Displacement     0.000295     0.001200     YES
 Predicted change in Energy=-6.326192D-09
 Optimization completed.
    -- Stationary point found.
                           ----------------------------
                           !   Optimized Parameters   !
                           ! (Angstroms and Degrees)  !
 --------------------------                            --------------------------
 ! Name  Definition              Value          Derivative Info.                !
 --------------------------------------------------------------------------------
 ! R1    R(1,2)                  1.5025         -DE/DX =    0.0                 !
 ! R2    R(1,3)                  1.5251         -DE/DX =    0.0                 !
 ! R3    R(1,4)                  1.0918         -DE/DX =    0.0                 !
 ! R4    R(1,5)                  1.097          -DE/DX =    0.0                 !
 ! R5    R(2,6)                  1.3268         -DE/DX =    0.0                 !
 ! R6    R(2,7)                  1.0868         -DE/DX =    0.0                 !
 ! R7    R(2,8)                  1.0892         -DE/DX =    0.0                 !
 ! R8    R(3,9)                  1.0908         -DE/DX =    0.0                 !
 ! R9    R(3,10)                 1.089          -DE/DX =    0.0                 !
 ! R10   R(3,11)                 1.0895         -DE/DX =    0.0                 !
 ! R11   R(6,13)                 1.1844         -DE/DX =    0.0                 !
 ! R12   R(12,13)                1.3853         -DE/DX =    0.0                 !
 ! R13   R(12,14)                0.9643         -DE/DX =    0.0                 !
 ! A1    A(2,1,3)              112.5936         -DE/DX =    0.0                 !
 ! A2    A(2,1,4)              109.5513         -DE/DX =    0.0                 !
 ! A3    A(2,1,5)              108.5448         -DE/DX =    0.0                 !
 ! A4    A(3,1,4)              110.1797         -DE/DX =    0.0                 !
 ! A5    A(3,1,5)              109.7883         -DE/DX =    0.0                 !
 ! A6    A(4,1,5)              105.9539         -DE/DX =    0.0                 !
 ! A7    A(1,2,6)              105.2513         -DE/DX =    0.0                 !
 ! A8    A(1,2,7)              116.6357         -DE/DX =    0.0                 !
 ! A9    A(1,2,8)              115.4321         -DE/DX =    0.0                 !
 ! A10   A(6,2,7)              103.1292         -DE/DX =    0.0                 !
 ! A11   A(6,2,8)              100.5638         -DE/DX =    0.0                 !
 ! A12   A(7,2,8)              113.1628         -DE/DX =    0.0                 !
 ! A13   A(1,3,9)              110.68           -DE/DX =    0.0                 !
 ! A14   A(1,3,10)             111.177          -DE/DX =    0.0                 !
 ! A15   A(1,3,11)             110.5958         -DE/DX =    0.0                 !
 ! A16   A(9,3,10)             108.091          -DE/DX =    0.0                 !
 ! A17   A(9,3,11)             107.6751         -DE/DX =    0.0                 !
 ! A18   A(10,3,11)            108.5051         -DE/DX =    0.0                 !
 ! A19   A(2,6,13)             174.3516         -DE/DX =    0.0                 !
 ! A20   A(13,12,14)           103.3127         -DE/DX =    0.0                 !
 ! A21   A(6,13,12)            104.1995         -DE/DX =    0.0                 !
 ! D1    D(3,1,2,6)             60.8053         -DE/DX =    0.0                 !
 ! D2    D(3,1,2,7)            174.3924         -DE/DX =    0.0                 !
 ! D3    D(3,1,2,8)            -49.0756         -DE/DX =    0.0                 !
 ! D4    D(4,1,2,6)            -62.1703         -DE/DX =    0.0                 !
 ! D5    D(4,1,2,7)             51.4168         -DE/DX =    0.0                 !
 ! D6    D(4,1,2,8)           -172.0512         -DE/DX =    0.0                 !
 ! D7    D(5,1,2,6)           -177.4343         -DE/DX =    0.0                 !
 ! D8    D(5,1,2,7)            -63.8472         -DE/DX =    0.0                 !
 ! D9    D(5,1,2,8)             72.6848         -DE/DX =    0.0                 !
 ! D10   D(2,1,3,9)             58.7022         -DE/DX =    0.0                 !
 ! D11   D(2,1,3,10)           178.8471         -DE/DX =    0.0                 !
 ! D12   D(2,1,3,11)           -60.5422         -DE/DX =    0.0                 !
 ! D13   D(4,1,3,9)           -178.6745         -DE/DX =    0.0                 !
 ! D14   D(4,1,3,10)           -58.5296         -DE/DX =    0.0                 !
 ! D15   D(4,1,3,11)            62.081          -DE/DX =    0.0                 !
 ! D16   D(5,1,3,9)            -62.3503         -DE/DX =    0.0                 !
 ! D17   D(5,1,3,10)            57.7946         -DE/DX =    0.0                 !
 ! D18   D(5,1,3,11)           178.4053         -DE/DX =    0.0                 !
 ! D19   D(1,2,6,13)           -52.0627         -DE/DX =    0.0                 !
 ! D20   D(7,2,6,13)          -174.7975         -DE/DX =    0.0                 !
 ! D21   D(8,2,6,13)            68.1784         -DE/DX =    0.0                 !
 ! D22   D(2,6,13,12)          -40.9585         -DE/DX =    0.0                 !
 ! D23   D(14,12,13,6)         -97.2845         -DE/DX =    0.0                 !
 --------------------------------------------------------------------------------
 GradGradGradGradGradGradGradGradGradGradGradGradGradGradGradGradGradGrad

 Leave Link  103 at Thu Mar 22 17:07:02 2018, MaxMem=  671088640 cpu:      48.4
 (Enter /shared/apps/gaussian/G09_LINUX_LINDA/g09/l9999.exe)
 1\1\GINC-COMPUTE-3-045\Freq\UM062X\6-311+G(2df,2p)\C3H9O2(2)\ROOT\22-M
 ar-2018\0\\#P Geom=AllCheck Guess=TCheck SCRF=Check GenChk UM062X/6-31
 1+G(2df,2p) Freq\\Gaussian input prepared by ASE\\0,2\C,-1.0863086043,
 -0.3367535981,0.5517254264\C,0.1503567544,-1.1506772471,0.2951800268\C
 ,-1.2242646175,0.8385106356,-0.4103332792\H,-1.0814900947,0.0198084641
 ,1.583673347\H,-1.9606430954,-0.9933811914,0.4636722332\H,1.1631676422
 ,-0.312185634,0.4729777819\H,0.3636386607,-1.9487127933,1.0014698551\H
 ,0.311877591,-1.4418491989,-0.7418243727\H,-1.2534898814,0.4893377708,
 -1.4433663016\H,-2.1371517369,1.3999367364,-0.21719334\H,-0.3754334386
 ,1.5146909138,-0.313585925\O,2.1796835545,0.9598651341,-0.7417870767\O
 ,2.013307628,0.5082092752,0.5572543829\H,2.936749638,0.4530007327,-1.0
 578627578\\Version=EM64L-G09RevB.01\State=2-A\HF=-269.9746621\S2=0.760
 011\S2-1=0.\S2A=0.75005\RMSD=1.378e-09\RMSF=7.736e-06\ZeroPoint=0.1145
 688\Thermal=0.1220579\Dipole=-0.137921,-0.7308538,-0.3092068\DipoleDer
 iv=-0.2014777,-0.0762671,0.0412743,-0.2024761,0.0008051,0.0321714,-0.0
 040732,-0.0179307,0.0675512,0.8119039,0.4752699,-0.1113911,0.4280979,0
 .3138229,-0.0691404,0.0682579,0.0719617,0.0696379,0.0480389,-0.0055129
 ,-0.0044945,-0.0219661,-0.0082968,0.0365185,0.0479139,0.0418084,0.0598
 181,0.0612717,0.0205016,-0.0147534,0.061858,0.0252969,-0.0453216,0.000
 881,-0.0195859,-0.1152572,-0.1250338,-0.1019173,0.0140852,0.0373709,0.
 0098462,0.0047923,-0.0070695,0.0058428,0.0631195,-0.6334228,-0.554885,
 0.1173447,-0.759168,-0.3773697,0.1040526,-0.0448899,-0.0297714,0.08189
 95,-0.0597967,-0.032238,0.0102155,0.0081992,-0.0830312,0.0798369,-0.06
 71483,0.0392251,0.0145027,-0.0659734,-0.0534462,0.0192898,-0.0519749,-
 0.0161859,-0.0065941,0.0516355,-0.0470605,-0.0729322,0.0687669,0.00498
 39,0.0109558,-0.0034671,0.0085201,-0.0724553,-0.0183862,-0.0218279,-0.
 1178356,-0.083499,0.1104518,0.014215,0.1025488,0.0025174,0.0118336,0.0
 304157,-0.0072245,0.0515582,0.0084071,-0.0907793,-0.0077338,-0.0398435
 ,0.0081826,0.0134812,-0.0371445,0.001638,0.0390561,-0.3416076,-0.18500
 28,0.0411812,-0.2309888,-0.3204013,-0.0342553,0.7027864,0.5286597,-0.4
 631565,0.1978339,0.3826599,-0.1318341,0.6481387,0.2166106,-0.0813394,-
 0.7122327,-0.5590805,0.0758274,0.3145885,0.1061816,0.0016456,0.0236711
 ,0.2196832,0.0264196,-0.0109461,0.0133455,0.2462107\Polar=71.3530438,1
 1.6814799,57.7351049,-4.6874586,-4.740228,49.2824014\PG=C01 [X(C3H9O2)
 ]\NImag=1\\0.50152170,0.02720589,0.49677801,-0.00040863,0.03359124,0.5
 5612359,-0.15611742,0.07363336,0.02229082,0.29714390,0.07982740,-0.105
 40860,-0.00862492,-0.16065190,0.41000723,0.02721437,-0.01096308,-0.088
 33760,-0.03579200,-0.05720452,0.58347574,-0.07694414,0.00605075,-0.003
 43159,-0.00631333,0.02580683,-0.02075850,0.58245129,0.00600915,-0.1509
 6293,0.05766507,0.00811403,-0.01798986,0.01365038,0.00200198,0.5195389
 7,-0.00421600,0.05958404,-0.13032960,-0.00465475,-0.00294699,0.0039626
 7,-0.00706033,0.04866955,0.53068097,-0.04563114,-0.00172764,-0.0047071
 4,-0.00329504,0.00992156,0.02916963,-0.00040555,-0.00099482,-0.0031795
 6,0.05173523,-0.00039395,-0.07775684,-0.08253376,-0.00076412,-0.006280
 70,-0.01705684,0.00054640,0.00893810,0.02667560,-0.00216739,0.08461140
 ,-0.00379259,-0.08141562,-0.27746961,0.00217407,-0.00213333,-0.0046014
 0,-0.00085334,-0.00557225,-0.01964232,0.00279776,0.08812086,0.30289204
 ,-0.20051856,-0.12385098,-0.01880539,-0.02745805,-0.01036216,-0.001255
 39,0.00380171,0.00275173,0.00024515,-0.00058913,-0.00058071,-0.0006345
 8,0.22363677,-0.11443753,-0.13049024,-0.01505895,0.01197284,0.00790098
 ,0.00130466,-0.02084142,-0.01750567,-0.00149688,-0.00925696,-0.0072596
 4,-0.00142415,0.12885902,0.14712124,-0.01756743,-0.01453997,-0.0467087
 2,0.00566456,0.00275593,-0.00021538,0.01736749,0.01509122,0.00084274,-
 0.02476471,-0.01825545,-0.00332990,0.01952564,0.01314204,0.04947059,-0
 .03077895,-0.01544854,-0.00270958,0.05934098,0.05680058,0.01104836,0.0
 0053450,-0.00227027,0.00169600,0.00119061,0.00025964,-0.00058568,-0.00
 271959,0.00534555,0.00077000,-0.04060878,-0.00896828,-0.00525705,-0.00
 040394,0.07526007,0.03190149,0.01162047,0.00180598,-0.00085190,0.00147
 944,0.00114837,0.00052038,-0.00069306,0.00100364,0.00345157,0.00003514
 ,-0.07661443,-0.02980593,0.00152252,0.00067297,-0.00015516,0.00347396,
 0.00371162,-0.02364481,-0.00050870,-0.00035582,0.00012306,0.00087092,0
 .00009469,-0.00010603,0.00070043,-0.00001661,0.00047498,-0.00551451,-0
 .00977595,0.07104749,-0.00068245,0.01995998,-0.01974431,-0.04405242,0.
 04457032,-0.02390773,-0.00479456,0.00160788,0.00310959,0.00080944,-0.0
 0050756,0.00069135,0.00092138,-0.00108676,0.00002266,-0.00779446,-0.01
 621590,0.00640221,0.04823094,-0.00139261,-0.00742153,0.00913534,0.0530
 2472,-0.19453632,0.13998908,0.00352852,-0.00083163,-0.00115885,-0.0006
 3607,0.00019464,-0.00008461,0.00072574,0.00006765,0.00015186,-0.003939
 28,-0.01287141,0.00659745,-0.05230996,0.20346611,0.00119725,-0.0052853
 7,0.00577989,-0.02830736,0.13383690,-0.16924159,0.00090281,-0.00072522
 ,0.00063873,-0.00096773,0.00030240,0.00057891,0.00005889,0.00010809,0.
 00018993,-0.00459924,-0.00494476,-0.00005443,0.03249194,-0.14743147,0.
 17497649,-0.00085504,0.00893947,0.02812822,-0.03899279,0.02181320,0.02
 936126,0.00101493,-0.00132525,0.00057754,-0.00446931,0.00330736,0.0000
 8350,0.00087199,-0.00083994,-0.00068939,-0.01005455,-0.01296794,-0.011
 04722,0.00246304,-0.00152897,-0.00415020,0.04450799,0.00008869,-0.0022
 2397,-0.01355135,0.02642714,-0.06136320,-0.07254001,-0.00119791,0.0008
 8541,-0.00133844,0.00338107,-0.00090220,-0.00093077,0.00054615,0.00006
 074,-0.00025462,-0.00832309,-0.01090717,-0.01018899,-0.00242949,0.0088
 6723,0.02197699,-0.02324174,0.06076843,-0.00084979,-0.00134970,-0.0033
 9309,0.03845273,-0.06605127,-0.30194355,-0.00024642,0.00054777,0.00124
 895,0.00103304,0.00014731,0.00136361,0.00020040,0.00002959,0.00013997,
 0.00087203,-0.00100192,-0.00488256,0.00161124,-0.00735827,-0.01388183,
 -0.04076787,0.07587861,0.31991490,-0.00107384,-0.00089803,-0.00210482,
 0.00040739,-0.00065435,-0.00102994,-0.04815128,-0.00230248,-0.00682348
 ,0.00068400,0.00044713,-0.00039501,-0.00003026,0.00030861,0.00047758,-
 0.00001960,-0.00022726,-0.00014905,-0.00003184,-0.00003355,0.00021119,
 0.00002062,0.00026763,0.00013686,0.04618949,0.00135075,0.00838673,0.02
 738143,-0.00083723,0.00164165,0.00045855,-0.00228771,-0.07715694,-0.08
 537047,0.00091344,-0.00398202,0.00382475,-0.00025175,0.00121924,-0.000
 72380,-0.00000778,-0.00007888,0.00000536,-0.00026808,0.00006940,-0.000
 19579,0.00009956,0.00001898,-0.00078631,0.00212575,0.08258093,-0.00080
 768,-0.00651866,-0.02132581,0.00085963,-0.00089222,0.00095675,-0.00686
 554,-0.08422000,-0.28099116,-0.00016476,0.00406074,-0.00109362,0.00040
 038,0.00000290,0.00061707,-0.00018522,-0.00035661,-0.00015785,0.000049
 55,0.00014917,0.00042445,-0.00087898,0.00057511,0.00035080,0.00777639,
 0.08899156,0.30776774,-0.00072377,-0.00089497,0.00023760,0.00090711,0.
 00029224,-0.00073704,-0.23751639,0.11469286,0.04158357,-0.00008186,0.0
 0012695,-0.00037879,0.00051096,0.00024327,-0.00028094,0.00025757,-0.00
 023646,0.00011724,0.00003153,0.00012803,0.00022042,0.00000442,-0.00016
 747,0.00001500,0.00173788,-0.00198004,-0.00020522,0.25460256,0.0213981
 3,-0.01294656,-0.00627605,-0.00112824,-0.00397484,0.00444524,0.1133872
 9,-0.11614885,-0.02588150,-0.00019674,0.00101458,-0.00005464,-0.000261
 49,0.00047336,-0.00096282,0.00048560,0.00028969,0.00010815,0.00161325,
 -0.00054875,-0.00009265,-0.00028658,0.00025444,0.00005096,0.00842104,-
 0.00599721,-0.00142498,-0.12623644,0.12564062,-0.01977266,0.01118718,0
 .00418201,0.00053697,0.00329976,-0.00296157,0.04253183,-0.02683785,-0.
 05652994,-0.00023363,-0.00092096,0.00062178,0.00034929,-0.00079732,0.0
 0074560,-0.00008705,-0.00020377,-0.00015908,-0.00113803,0.00082600,0.0
 0042400,-0.00014595,0.00024639,0.00020614,0.02670762,-0.01491242,-0.00
 436476,-0.04569990,0.02556470,0.05831401,0.00344416,0.00309651,0.00108
 688,0.00130937,0.00037481,-0.00003232,-0.21343705,-0.13080542,-0.02057
 339,0.00002988,-0.00032833,0.00041258,0.00091100,0.00155483,-0.0005667
 2,-0.00002725,0.00012897,-0.00007925,0.00001528,-0.00009133,0.00001487
 ,-0.00007130,-0.00005283,0.00011511,0.00016404,0.00115985,0.00003179,-
 0.01932080,-0.01646813,-0.00333267,0.22785804,-0.01889146,-0.01701247,
 -0.00222840,-0.00211087,0.00061441,-0.00064859,-0.12831259,-0.14847874
 ,-0.01729148,0.00023471,0.00098034,-0.00018238,0.00108662,-0.00328551,
 0.00357452,0.00114177,-0.00048019,0.00029206,0.00026318,0.00039517,0.0
 0009802,0.00008857,-0.00023880,-0.00011344,-0.00769646,-0.00681680,-0.
 00065446,0.01384750,0.01198176,0.00232702,0.14144039,0.16204620,0.0174
 4831,0.01475711,0.00161473,0.00081748,-0.00086102,0.00052570,-0.020898
 97,-0.01789836,-0.04976403,0.00061398,-0.00070600,0.00066601,-0.000592
 15,0.00411626,-0.00221900,-0.00022173,0.00032610,0.00016708,0.00005205
 ,-0.00017120,-0.00012181,-0.00012629,0.00004834,-0.00003796,-0.0249070
 8,-0.01871443,-0.00226706,0.00516612,0.00451420,-0.00051689,0.02285523
 ,0.01496962,0.05217352,-0.00049338,-0.00089343,0.00006192,0.00338342,0
 .00005171,0.00177340,-0.00026734,0.00072167,0.00066136,0.00010699,0.00
 007504,0.00000973,-0.00016618,0.00023152,0.00001526,-0.00251393,-0.008
 57265,0.02072445,-0.00139494,-0.00040353,-0.00010760,0.00039157,0.0003
 6732,-0.00018563,0.00045171,0.00014759,-0.00003117,-0.00024260,-0.0000
 9790,0.00016037,-0.00068219,-0.00003458,-0.00028775,0.38006836,-0.0004
 1348,-0.00099804,-0.00015279,0.00650868,0.00194838,0.00270340,-0.00006
 328,-0.00020404,-0.00013910,-0.00013445,0.00013426,0.00018406,-0.00027
 318,0.00053520,0.00013895,-0.00842963,-0.01501351,0.01938169,-0.001870
 06,-0.00060606,-0.00041019,0.00045679,0.00032024,-0.00016026,0.0000455
 4,-0.00002593,0.00008336,0.00000176,0.00019459,-0.00000078,0.00000949,
 0.00024059,-0.00010626,-0.21932609,0.24130152,0.00756977,0.00721444,0.
 00122364,-0.03446450,-0.02302016,-0.00507002,-0.00038270,0.00087341,-0
 .00155806,-0.00044387,-0.00065749,0.00014809,0.00175927,-0.00308165,-0
 .00044846,0.05000060,0.04852842,-0.00656319,0.00438977,0.00252422,0.00
 228008,0.00487187,0.00428325,0.00093404,0.00018846,0.00017552,0.000327
 66,-0.00005766,-0.00066330,0.00039120,0.00034355,-0.00090175,0.0000985
 1,-0.16305224,-0.03135919,0.34513912,0.00887337,0.00463502,0.00026479,
 -0.08436288,-0.06777077,-0.01514303,-0.00007197,0.00151762,-0.00148568
 ,-0.00014025,0.00010180,0.00051173,0.00070898,-0.00186862,0.00002265,0
 .03290212,0.04160552,-0.01797096,0.00580548,0.00272100,0.00300040,0.00
 518741,0.00441610,-0.00022835,-0.00028738,-0.00017620,0.00006630,-0.00
 015463,-0.00048455,0.00013366,-0.00011710,-0.00089579,0.00013208,-0.05
 133884,0.00560225,0.00055358,0.07921315,0.00982504,0.00623303,0.001343
 07,-0.09194865,-0.06718031,-0.01672544,-0.00048115,0.00088548,-0.00094
 471,-0.00065266,-0.00019522,0.00046773,0.00080423,-0.00263849,-0.00016
 003,0.05603642,0.04085461,-0.01278845,0.00699967,0.00394323,0.00287420
 ,0.00605624,0.00483849,0.00051222,0.00023210,0.00012714,0.00026535,0.0
 0015565,-0.00026288,0.00024941,0.00001028,0.00002278,-0.00035315,-0.00
 834255,-0.05346627,0.07419084,0.02700782,0.05778297,-0.00713534,-0.006
 63506,-0.00096027,0.02797182,0.01700785,0.00641732,0.00015258,-0.00118
 887,0.00108063,-0.00001585,0.00072730,-0.00003310,-0.00184556,0.003105
 17,0.00037766,-0.04924592,-0.04258251,-0.03484527,-0.00393430,-0.00308
 707,-0.00189073,-0.00515442,-0.00418410,-0.00002751,-0.00007640,-0.000
 10327,-0.00019924,0.00014892,0.00074840,-0.00033831,-0.00048633,0.0009
 4516,-0.00013583,0.04884539,0.05821646,-0.26746123,-0.00824913,-0.0368
 2616,0.33781735,-0.00002054,0.00019260,-0.00015878,-0.00190025,-0.0000
 1948,0.00008893,0.00009918,0.00028134,0.00011997,0.00005611,-0.0001222
 6,-0.00004072,0.00011897,-0.00018441,0.00000336,0.00029131,0.00285039,
 0.00145798,0.00047357,0.00020727,0.00003436,-0.00001900,-0.00008159,-0
 .00015836,-0.00006096,0.00001186,-0.00004548,-0.00001198,-0.00014524,-
 0.00000985,-0.00007607,-0.00016100,-0.00005129,-0.32730266,0.21788566,
 0.12872410,0.00378254,-0.00570243,-0.00097547,0.32456976,-0.00120774,-
 0.00091954,-0.00028600,0.00250017,0.00271969,0.00096672,0.00005632,-0.
 00011740,0.00015979,0.00016758,-0.00001707,-0.00010659,-0.00019687,0.0
 0034957,0.00000703,-0.00503655,-0.00175168,0.00226183,-0.00032650,-0.0
 0018773,-0.00011113,-0.00057077,-0.00037861,-0.00034529,-0.00003566,0.
 00001373,-0.00006128,0.00002712,0.00003005,-0.00002735,-0.00002907,0.0
 0003126,0.00007880,0.23607588,-0.17436094,-0.07810655,-0.01641120,0.00
 905544,0.01385671,-0.21501271,0.16553324,-0.00040210,-0.00029953,-0.00
 024400,0.00097658,0.00112236,0.00067774,0.00005136,0.00030098,0.000237
 38,-0.00000809,0.00000160,0.00000554,-0.00010637,0.00006685,0.00006293
 ,-0.00123805,-0.00202705,-0.00124422,-0.00009598,-0.00008166,-0.000102
 09,-0.00006208,-0.00002039,0.00000809,-0.00001232,-0.00003067,-0.00004
 496,-0.00012933,-0.00007571,-0.00001416,0.00021066,-0.00018588,-0.0001
 8297,0.09141251,-0.04837936,-0.06944138,0.03839196,-0.01210487,-0.0398
 0145,-0.12898876,0.06171332,0.11008356\\-0.00000404,0.00000341,-0.0000
 0735,-0.00000695,-0.00000084,0.00000167,0.00000434,0.00000378,-0.00000
 835,-0.00000784,0.00000533,-0.00000727,-0.00000658,0.00000678,-0.00000
 962,-0.00000336,-0.00000295,0.00000827,-0.00001329,-0.00000267,0.00000
 142,0.00000061,0.00000102,0.00000101,0.00001237,0.00000431,-0.00000779
 ,0.00000504,0.00000579,-0.00001436,0.00000589,0.00000155,-0.00000061,0
 .00000289,-0.00000113,0.00001871,-0.00000227,-0.00001000,0.00001105,0.
 00001318,-0.00001437,0.00001319\\\@


 QED = W**5 (WHICH WAS WHAT WE WANTED)
 Job cpu time:  0 days  2 hours 16 minutes 51.9 seconds.
 File lengths (MBytes):  RWF=    206 Int=      0 D2E=      0 Chk=      7 Scr=      1
 Normal termination of Gaussian 09 at Thu Mar 22 17:07:02 2018.
