 Entering Gaussian System, Link 0=g09
 Initial command:
 /shared/apps/gaussian/G09_LINUX_LINDA/g09/l1.exe /home/harms.n/Code/AutoTST/Gau-30071.inp -scrdir=/home/harms.n/Code/AutoTST/
 Entering Link 1 = /shared/apps/gaussian/G09_LINUX_LINDA/g09/l1.exe PID=     30072.
  
 Copyright (c) 1988,1990,1992,1993,1995,1998,2003,2009,2010,
            Gaussian, Inc.  All Rights Reserved.
  
 This is part of the Gaussian(R) 09 program.  It is based on
 the Gaussian(R) 03 system (copyright 2003, Gaussian, Inc.),
 the Gaussian(R) 98 system (copyright 1998, Gaussian, Inc.),
 the Gaussian(R) 94 system (copyright 1995, Gaussian, Inc.),
 the Gaussian 92(TM) system (copyright 1992, Gaussian, Inc.),
 the Gaussian 90(TM) system (copyright 1990, Gaussian, Inc.),
 the Gaussian 88(TM) system (copyright 1988, Gaussian, Inc.),
 the Gaussian 86(TM) system (copyright 1986, Carnegie Mellon
 University), and the Gaussian 82(TM) system (copyright 1983,
 Carnegie Mellon University). Gaussian is a federally registered
 trademark of Gaussian, Inc.
  
 This software contains proprietary and confidential information,
 including trade secrets, belonging to Gaussian, Inc.
  
 This software is provided under written license and may be
 used, copied, transmitted, or stored only in accord with that
 written license.
  
 The following legend is applicable only to US Government
 contracts under FAR:
  
                    RESTRICTED RIGHTS LEGEND
  
 Use, reproduction and disclosure by the US Government is
 subject to restrictions as set forth in subparagraphs (a)
 and (c) of the Commercial Computer Software - Restricted
 Rights clause in FAR 52.227-19.
  
 Gaussian, Inc.
 340 Quinnipiac St., Bldg. 40, Wallingford CT 06492
  
  
 ---------------------------------------------------------------
 Warning -- This program may not be used in any manner that
 competes with the business of Gaussian, Inc. or will provide
 assistance to any competitor of Gaussian, Inc.  The licensee
 of this program is prohibited from giving any competitor of
 Gaussian, Inc. access to this program.  By using this program,
 the user acknowledges that Gaussian, Inc. is engaged in the
 business of creating and licensing software in the field of
 computational chemistry and represents and warrants to the
 licensee that it is not a competitor of Gaussian, Inc. and that
 it will not use this program in any manner prohibited above.
 ---------------------------------------------------------------
  

 Cite this work as:
 Gaussian 09, Revision B.01,
 M. J. Frisch, G. W. Trucks, H. B. Schlegel, G. E. Scuseria, 
 M. A. Robb, J. R. Cheeseman, G. Scalmani, V. Barone, B. Mennucci, 
 G. A. Petersson, H. Nakatsuji, M. Caricato, X. Li, H. P. Hratchian, 
 A. F. Izmaylov, J. Bloino, G. Zheng, J. L. Sonnenberg, M. Hada, 
 M. Ehara, K. Toyota, R. Fukuda, J. Hasegawa, M. Ishida, T. Nakajima, 
 Y. Honda, O. Kitao, H. Nakai, T. Vreven, J. A. Montgomery, Jr., 
 J. E. Peralta, F. Ogliaro, M. Bearpark, J. J. Heyd, E. Brothers, 
 K. N. Kudin, V. N. Staroverov, T. Keith, R. Kobayashi, J. Normand, 
 K. Raghavachari, A. Rendell, J. C. Burant, S. S. Iyengar, J. Tomasi, 
 M. Cossi, N. Rega, J. M. Millam, M. Klene, J. E. Knox, J. B. Cross, 
 V. Bakken, C. Adamo, J. Jaramillo, R. Gomperts, R. E. Stratmann, 
 O. Yazyev, A. J. Austin, R. Cammi, C. Pomelli, J. W. Ochterski, 
 R. L. Martin, K. Morokuma, V. G. Zakrzewski, G. A. Voth, 
 P. Salvador, J. J. Dannenberg, S. Dapprich, A. D. Daniels, 
 O. Farkas, J. B. Foresman, J. V. Ortiz, J. Cioslowski, 
 and D. J. Fox, Gaussian, Inc., Wallingford CT, 2010.
 
 ******************************************
 Gaussian 09:  EM64L-G09RevB.01 12-Aug-2010
                 8-May-2018 
 ******************************************
 %nprocshared=20
 Will use up to   20 processors via shared memory.
 %mem=5GB
 ---------------------------------------------------------------
 #p m062x/6-311+g(2df,2p) opt=(verytight,gdiis) freq IOP(2/16=3)
 ---------------------------------------------------------------

 Warning!  Use of Opt=GDIIS is deprecated since it is seldom a good choice.

 1/7=1,14=-1,18=20,19=11,26=3,38=1/1,3;
 2/9=110,12=2,16=3,17=6,18=5,40=1/2;
 3/5=4,6=6,7=214,11=2,16=1,25=1,30=1,71=1,74=-55/1,2,3;
 4//1;
 5/5=2,38=5/2;
 6/7=2,8=2,9=2,10=2,28=1/1;
 7//1,2,3,16;
 1/7=1,14=-1,18=20,19=11/3(2);
 2/9=110,16=3/2;
 99//99;
 2/9=110,16=3/2;
 3/5=4,6=6,7=214,11=2,16=1,25=1,30=1,71=1,74=-55/1,2,3;
 4/5=5,16=3/1;
 5/5=2,38=5/2;
 7//1,2,3,16;
 1/7=1,14=-1,18=20,19=11/3(-5);
 2/9=110,16=3/2;
 6/7=2,8=2,9=2,10=2,19=2,28=1/1;
 99/9=1/99;
 Leave Link    1 at Tue May  8 09:56:19 2018, MaxMem=  671088640 cpu:       1.2
 (Enter /shared/apps/gaussian/G09_LINUX_LINDA/g09/l101.exe)
 ------------------------------
 Gaussian input prepared by ASE
 ------------------------------
 Symbolic Z-matrix:
 Charge =  0 Multiplicity = 2
 C                     1.9263   -0.0553   -0.3487 
 C                    -1.5421    0.0984   -0.3225 
 C                     0.6975   -0.4816    0.4029 
 C                    -0.3551    0.5727    0.5097 
 H                     2.3104   -0.8724   -0.9912 
 H                     1.8205    0.8998   -0.8834 
 H                    -2.2924    0.8909   -0.4591 
 H                    -1.9697   -0.7643    0.2489 
 H                    -1.1562   -0.3229   -1.2686 
 H                     0.3353   -1.4345   -0.0454 
 H                     1.0354   -0.7343    1.4364 
 H                    -0.0525    1.5682    0.1681 
 H                    -0.7574    0.6353    1.5529 
 
 NAtoms=     13 NQM=     13 NQMF=      0 NMic=      0 NMicF=      0 NTot=     13.
                    Isotopes and Nuclear Properties:
 (Nuclear quadrupole moments (NQMom) in fm**2, nuclear magnetic moments (NMagM)
  in nuclear magnetons)

  Atom         1           2           3           4           5           6           7           8           9          10
 IAtWgt=          12          12          12          12           1           1           1           1           1           1
 AtmWgt=  12.0000000  12.0000000  12.0000000  12.0000000   1.0078250   1.0078250   1.0078250   1.0078250   1.0078250   1.0078250
 NucSpn=           0           0           0           0           1           1           1           1           1           1
 AtZEff=   0.0000000   0.0000000   0.0000000   0.0000000   0.0000000   0.0000000   0.0000000   0.0000000   0.0000000   0.0000000
 NQMom=    0.0000000   0.0000000   0.0000000   0.0000000   0.0000000   0.0000000   0.0000000   0.0000000   0.0000000   0.0000000
 NMagM=    0.0000000   0.0000000   0.0000000   0.0000000   2.7928460   2.7928460   2.7928460   2.7928460   2.7928460   2.7928460

  Atom        11          12          13
 IAtWgt=           1           1           1
 AtmWgt=   1.0078250   1.0078250   1.0078250
 NucSpn=           1           1           1
 AtZEff=   0.0000000   0.0000000   0.0000000
 NQMom=    0.0000000   0.0000000   0.0000000
 NMagM=    2.7928460   2.7928460   2.7928460
 Leave Link  101 at Tue May  8 09:56:19 2018, MaxMem=  671088640 cpu:       1.2
 (Enter /shared/apps/gaussian/G09_LINUX_LINDA/g09/l103.exe)

 GradGradGradGradGradGradGradGradGradGradGradGradGradGradGradGradGradGrad
 Berny optimization.
 Initialization pass.
                           ----------------------------
                           !    Initial Parameters    !
                           ! (Angstroms and Degrees)  !
 --------------------------                            --------------------------
 ! Name  Definition              Value          Derivative Info.                !
 --------------------------------------------------------------------------------
 ! R1    R(1,3)                  1.5022         estimate D2E/DX2                !
 ! R2    R(1,5)                  1.1081         estimate D2E/DX2                !
 ! R3    R(1,6)                  1.0997         estimate D2E/DX2                !
 ! R4    R(2,4)                  1.5253         estimate D2E/DX2                !
 ! R5    R(2,7)                  1.0998         estimate D2E/DX2                !
 ! R6    R(2,8)                  1.1196         estimate D2E/DX2                !
 ! R7    R(2,9)                  1.1052         estimate D2E/DX2                !
 ! R8    R(3,4)                  1.4936         estimate D2E/DX2                !
 ! R9    R(3,10)                 1.1136         estimate D2E/DX2                !
 ! R10   R(3,11)                 1.1163         estimate D2E/DX2                !
 ! R11   R(4,12)                 1.0951         estimate D2E/DX2                !
 ! R12   R(4,13)                 1.1198         estimate D2E/DX2                !
 ! A1    A(3,1,5)              111.369          estimate D2E/DX2                !
 ! A2    A(3,1,6)              114.2709         estimate D2E/DX2                !
 ! A3    A(5,1,6)              113.0692         estimate D2E/DX2                !
 ! A4    A(4,2,7)              111.9989         estimate D2E/DX2                !
 ! A5    A(4,2,8)              104.9729         estimate D2E/DX2                !
 ! A6    A(4,2,9)              108.2922         estimate D2E/DX2                !
 ! A7    A(7,2,8)              110.9805         estimate D2E/DX2                !
 ! A8    A(7,2,9)              113.9878         estimate D2E/DX2                !
 ! A9    A(8,2,9)              106.0515         estimate D2E/DX2                !
 ! A10   A(1,3,4)              114.3262         estimate D2E/DX2                !
 ! A11   A(1,3,10)             107.9063         estimate D2E/DX2                !
 ! A12   A(1,3,11)             106.2515         estimate D2E/DX2                !
 ! A13   A(4,3,10)             113.8012         estimate D2E/DX2                !
 ! A14   A(4,3,11)             107.8727         estimate D2E/DX2                !
 ! A15   A(10,3,11)            106.1077         estimate D2E/DX2                !
 ! A16   A(2,4,3)              106.8533         estimate D2E/DX2                !
 ! A17   A(2,4,12)             109.1182         estimate D2E/DX2                !
 ! A18   A(2,4,13)             104.2454         estimate D2E/DX2                !
 ! A19   A(3,4,12)             115.1269         estimate D2E/DX2                !
 ! A20   A(3,4,13)             111.0537         estimate D2E/DX2                !
 ! A21   A(12,4,13)            109.8181         estimate D2E/DX2                !
 ! D1    D(5,1,3,4)           -140.6409         estimate D2E/DX2                !
 ! D2    D(5,1,3,10)           -12.9429         estimate D2E/DX2                !
 ! D3    D(5,1,3,11)           100.5035         estimate D2E/DX2                !
 ! D4    D(6,1,3,4)            -10.9987         estimate D2E/DX2                !
 ! D5    D(6,1,3,10)           116.6994         estimate D2E/DX2                !
 ! D6    D(6,1,3,11)          -129.8543         estimate D2E/DX2                !
 ! D7    D(7,2,4,3)           -169.2816         estimate D2E/DX2                !
 ! D8    D(7,2,4,12)           -44.2108         estimate D2E/DX2                !
 ! D9    D(7,2,4,13)            73.0611         estimate D2E/DX2                !
 ! D10   D(8,2,4,3)             70.202          estimate D2E/DX2                !
 ! D11   D(8,2,4,12)          -164.7272         estimate D2E/DX2                !
 ! D12   D(8,2,4,13)           -47.4553         estimate D2E/DX2                !
 ! D13   D(9,2,4,3)            -42.7438         estimate D2E/DX2                !
 ! D14   D(9,2,4,12)            82.327          estimate D2E/DX2                !
 ! D15   D(9,2,4,13)          -160.4011         estimate D2E/DX2                !
 ! D16   D(1,3,4,2)            112.4066         estimate D2E/DX2                !
 ! D17   D(1,3,4,12)            -8.9298         estimate D2E/DX2                !
 ! D18   D(1,3,4,13)          -134.5068         estimate D2E/DX2                !
 ! D19   D(10,3,4,2)           -12.2168         estimate D2E/DX2                !
 ! D20   D(10,3,4,12)         -133.5533         estimate D2E/DX2                !
 ! D21   D(10,3,4,13)          100.8697         estimate D2E/DX2                !
 ! D22   D(11,3,4,2)          -129.6582         estimate D2E/DX2                !
 ! D23   D(11,3,4,12)          109.0053         estimate D2E/DX2                !
 ! D24   D(11,3,4,13)          -16.5717         estimate D2E/DX2                !
 --------------------------------------------------------------------------------
 Trust Radius=3.00D-01 FncErr=1.00D-07 GrdErr=1.00D-06
 Number of steps in this run=     67 maximum allowed number of steps=    100.
 GradGradGradGradGradGradGradGradGradGradGradGradGradGradGradGradGradGrad

 Leave Link  103 at Tue May  8 09:56:19 2018, MaxMem=  671088640 cpu:       0.2
 (Enter /shared/apps/gaussian/G09_LINUX_LINDA/g09/l202.exe)
                          Input orientation:                          
 ---------------------------------------------------------------------
 Center     Atomic      Atomic             Coordinates (Angstroms)
 Number     Number       Type             X           Y           Z
 ---------------------------------------------------------------------
      1          6           0        1.926300   -0.055300   -0.348700
      2          6           0       -1.542100    0.098400   -0.322500
      3          6           0        0.697500   -0.481600    0.402900
      4          6           0       -0.355100    0.572700    0.509700
      5          1           0        2.310400   -0.872400   -0.991200
      6          1           0        1.820500    0.899800   -0.883400
      7          1           0       -2.292400    0.890900   -0.459100
      8          1           0       -1.969700   -0.764300    0.248900
      9          1           0       -1.156200   -0.322900   -1.268600
     10          1           0        0.335300   -1.434500   -0.045400
     11          1           0        1.035400   -0.734300    1.436400
     12          1           0       -0.052500    1.568200    0.168100
     13          1           0       -0.757400    0.635300    1.552900
 ---------------------------------------------------------------------
                    Distance matrix (angstroms):
                    1          2          3          4          5
     1  C    0.000000
     2  C    3.471903   0.000000
     3  C    1.502193   2.424544   0.000000
     4  C    2.517145   1.525282   1.493627   0.000000
     5  H    1.108148   4.028817   2.167415   3.383180   0.000000
     6  H    1.099688   3.501989   2.196352   2.604027   1.841824
     7  H    4.324918   1.099848   3.400927   2.189282   4.957633
     8  H    4.004825   1.119639   2.686557   2.112467   4.457442
     9  H    3.227945   1.105223   2.501060   2.146209   3.520826
    10  H    2.127314   2.439508   1.113634   2.194001   2.260866
    11  H    2.107445   3.229648   1.116314   2.121441   2.745531
    12  H    2.611223   2.149397   2.195293   1.095115   3.589401
    13  H    3.360842   2.102651   2.164879   1.119835   4.261103
                    6          7          8          9         10
     6  H    0.000000
     7  H    4.134738   0.000000
     8  H    4.291497   1.828958   0.000000
     9  H    3.241006   1.849203   1.777476   0.000000
    10  H    2.890851   3.533191   2.418430   2.226307   0.000000
    11  H    2.944170   4.160342   3.231359   3.505622   1.782176
    12  H    2.249564   2.422657   3.020388   2.618878   3.035157
    13  H    3.556837   2.543561   2.264722   3.006335   2.834189
                   11         12         13
    11  H    0.000000
    12  H    2.844928   0.000000
    13  H    2.259095   1.812418   0.000000
 Stoichiometry    C4H9(2)
 Framework group  C1[X(C4H9)]
 Deg. of freedom    33
 Full point group                 C1      NOp   1
 Largest Abelian subgroup         C1      NOp   1
 Largest concise Abelian subgroup C1      NOp   1
                         Standard orientation:                         
 ---------------------------------------------------------------------
 Center     Atomic      Atomic             Coordinates (Angstroms)
 Number     Number       Type             X           Y           Z
 ---------------------------------------------------------------------
      1          6           0       -1.823681   -0.241114    0.262346
      2          6           0        1.628613   -0.459565   -0.034391
      3          6           0       -0.636321    0.266112   -0.505430
      4          6           0        0.560221    0.563474    0.337651
      5          1           0       -2.349238   -1.044493   -0.291155
      6          1           0       -1.606088   -0.508540    1.306593
      7          1           0        2.477886   -0.440952    0.664219
      8          1           0        1.953258   -0.176023   -1.067736
      9          1           0        1.144437   -1.448781   -0.126822
     10          1           0       -0.434821   -0.448234   -1.335663
     11          1           0       -0.960432    1.218897   -0.988451
     12          1           0        0.388459    0.525764    1.418555
     13          1           0        1.013542    1.548924    0.059410
 ---------------------------------------------------------------------
 Rotational constants (GHZ):     17.1480238      4.3698550      4.2784621
 Leave Link  202 at Tue May  8 09:56:20 2018, MaxMem=  671088640 cpu:       0.9
 (Enter /shared/apps/gaussian/G09_LINUX_LINDA/g09/l301.exe)
 Standard basis: 6-311+G(2df,2p) (5D, 7F)
 Ernie: Thresh=  0.10000D-02 Tol=  0.10000D-05 Strict=F.
 There are   217 symmetry adapted basis functions of A   symmetry.
 Integral buffers will be    131072 words long.
 Raffenetti 2 integral format.
 Two-electron integral symmetry is turned on.
   217 basis functions,   307 primitive gaussians,   237 cartesian basis functions
    17 alpha electrons       16 beta electrons
       nuclear repulsion energy       125.0235938011 Hartrees.
 IExCor= 4336 DFT=T Ex+Corr=M062X ExCW=0 ScaHFX=  0.540000
 ScaDFX=  1.000000  1.000000  1.000000  1.000000 ScalE2=  1.000000  1.000000
 IRadAn=      0 IRanWt=     -1 IRanGd=            0 ICorTp=0
 NAtoms=   13 NActive=   13 NUniq=   13 SFac= 1.00D+00 NAtFMM=   50 NAOKFM=F Big=F
 Leave Link  301 at Tue May  8 09:56:20 2018, MaxMem=  671088640 cpu:       1.0
 (Enter /shared/apps/gaussian/G09_LINUX_LINDA/g09/l302.exe)
 NPDir=0 NMtPBC=     1 NCelOv=     1 NCel=       1 NClECP=     1 NCelD=      1
         NCelK=      1 NCelE2=     1 NClLst=     1 CellRange=     0.0.
 One-electron integrals computed using PRISM.
 NBasis=   217 RedAO= T  NBF=   217
 NBsUse=   217 1.00D-06 NBFU=   217
 Precomputing XC quadrature grid using
 IXCGrd= 2 IRadAn=           0 IRanWt=          -1 IRanGd=           0 AccXCQ= 0.00D+00.
 NRdTot=     835 NPtTot=      105696 NUsed=      111723 NTot=      111755
 NSgBfM=   237   237   237   237   237 NAtAll=    13    13.
 Leave Link  302 at Tue May  8 09:56:21 2018, MaxMem=  671088640 cpu:      11.4
 (Enter /shared/apps/gaussian/G09_LINUX_LINDA/g09/l303.exe)
 DipDrv:  MaxL=1.
 Leave Link  303 at Tue May  8 09:56:22 2018, MaxMem=  671088640 cpu:       3.1
 (Enter /shared/apps/gaussian/G09_LINUX_LINDA/g09/l401.exe)
 Harris functional with IExCor= 1009 diagonalized for initial guess.
 ExpMin= 4.38D-02 ExpMax= 4.56D+03 ExpMxC= 6.82D+02 IAcc=2 IRadAn=         0 AccDes= 0.00D+00
 HarFok:  IExCor= 1009 AccDes= 0.00D+00 IRadAn=         0 IDoV= 1
 ScaDFX=  1.000000  1.000000  1.000000  1.000000
 FoFCou: FMM=F IPFlag=           0 FMFlag=      100000 FMFlg1=           0
         NFxFlg=           0 DoJE=T BraDBF=F KetDBF=T FulRan=T
         Omega=  0.000000  0.000000  1.000000  0.000000  0.000000 ICntrl=     500 IOpCl=  0
         NMat0=    1 NMatS0=    1 NMatT0=    0 NMatD0=    1 NMtDS0=    0 NMtDT0=    0
         I1Cent=           4 NGrid=           0.
 Petite list used in FoFCou.
 Harris En= -157.684596673913    
 Initial guess orbital symmetries:
 Alpha Orbitals:
       Occupied  (A) (A) (A) (A) (A) (A) (A) (A) (A) (A) (A) (A)
                 (A) (A) (A) (A) (A)
       Virtual   (A) (A) (A) (A) (A) (A) (A) (A) (A) (A) (A) (A)
                 (A) (A) (A) (A) (A) (A) (A) (A) (A) (A) (A) (A)
                 (A) (A) (A) (A) (A) (A) (A) (A) (A) (A) (A) (A)
                 (A) (A) (A) (A) (A) (A) (A) (A) (A) (A) (A) (A)
                 (A) (A) (A) (A) (A) (A) (A) (A) (A) (A) (A) (A)
                 (A) (A) (A) (A) (A) (A) (A) (A) (A) (A) (A) (A)
                 (A) (A) (A) (A) (A) (A) (A) (A) (A) (A) (A) (A)
                 (A) (A) (A) (A) (A) (A) (A) (A) (A) (A) (A) (A)
                 (A) (A) (A) (A) (A) (A) (A) (A) (A) (A) (A) (A)
                 (A) (A) (A) (A) (A) (A) (A) (A) (A) (A) (A) (A)
                 (A) (A) (A) (A) (A) (A) (A) (A) (A) (A) (A) (A)
                 (A) (A) (A) (A) (A) (A) (A) (A) (A) (A) (A) (A)
                 (A) (A) (A) (A) (A) (A) (A) (A) (A) (A) (A) (A)
                 (A) (A) (A) (A) (A) (A) (A) (A) (A) (A) (A) (A)
                 (A) (A) (A) (A) (A) (A) (A) (A) (A) (A) (A) (A)
                 (A) (A) (A) (A) (A) (A) (A) (A) (A) (A) (A) (A)
                 (A) (A) (A) (A) (A) (A) (A) (A)
 Beta  Orbitals:
       Occupied  (A) (A) (A) (A) (A) (A) (A) (A) (A) (A) (A) (A)
                 (A) (A) (A) (A)
       Virtual   (A) (A) (A) (A) (A) (A) (A) (A) (A) (A) (A) (A)
                 (A) (A) (A) (A) (A) (A) (A) (A) (A) (A) (A) (A)
                 (A) (A) (A) (A) (A) (A) (A) (A) (A) (A) (A) (A)
                 (A) (A) (A) (A) (A) (A) (A) (A) (A) (A) (A) (A)
                 (A) (A) (A) (A) (A) (A) (A) (A) (A) (A) (A) (A)
                 (A) (A) (A) (A) (A) (A) (A) (A) (A) (A) (A) (A)
                 (A) (A) (A) (A) (A) (A) (A) (A) (A) (A) (A) (A)
                 (A) (A) (A) (A) (A) (A) (A) (A) (A) (A) (A) (A)
                 (A) (A) (A) (A) (A) (A) (A) (A) (A) (A) (A) (A)
                 (A) (A) (A) (A) (A) (A) (A) (A) (A) (A) (A) (A)
                 (A) (A) (A) (A) (A) (A) (A) (A) (A) (A) (A) (A)
                 (A) (A) (A) (A) (A) (A) (A) (A) (A) (A) (A) (A)
                 (A) (A) (A) (A) (A) (A) (A) (A) (A) (A) (A) (A)
                 (A) (A) (A) (A) (A) (A) (A) (A) (A) (A) (A) (A)
                 (A) (A) (A) (A) (A) (A) (A) (A) (A) (A) (A) (A)
                 (A) (A) (A) (A) (A) (A) (A) (A) (A) (A) (A) (A)
                 (A) (A) (A) (A) (A) (A) (A) (A) (A)
 The electronic state of the initial guess is 2-A.
 Initial guess <Sx>= 0.0000 <Sy>= 0.0000 <Sz>= 0.5000 <S**2>= 0.7500 S= 0.5000
 Leave Link  401 at Tue May  8 09:56:26 2018, MaxMem=  671088640 cpu:      43.6
 (Enter /shared/apps/gaussian/G09_LINUX_LINDA/g09/l502.exe)
 UHF open shell SCF:
 Requested convergence on RMS density matrix=1.00D-08 within 128 cycles.
 Requested convergence on MAX density matrix=1.00D-06.
 Requested convergence on             energy=1.00D-06.
 No special actions if energy rises.
 Using DIIS extrapolation, IDIIS=  1040.
 Integral symmetry usage will be decided dynamically.
       111593 words used for storage of precomputed grid.
 IEnd=      304728 IEndB=      304728 NGot=   671088640 MDV=   670856959
 LenX=   670856959 LenY=   670800349
 Fock matrices will be formed incrementally for  20 cycles.

 Cycle   1  Pass 1  IDiag  1:
 FoFCou: FMM=F IPFlag=           0 FMFlag=      100000 FMFlg1=           0
         NFxFlg=           0 DoJE=F BraDBF=F KetDBF=F FulRan=T
         Omega=  0.000000  0.000000  1.000000  0.000000  0.000000 ICntrl=       0 IOpCl=  1
         NMat0=    1 NMatS0=    1 NMatT0=    0 NMatD0=    1 NMtDS0=    0 NMtDT0=    0
         I1Cent=           0 NGrid=           0.
 Symmetry not used in FoFCou.
 E= -157.546186949765    
 DIIS: error= 2.24D-02 at cycle   1 NSaved=   1.
 NSaved= 1 IEnMin= 1 EnMin= -157.546186949765     IErMin= 1 ErrMin= 2.24D-02
 ErrMax= 2.24D-02 EMaxC= 1.00D-01 BMatC= 7.15D-01 BMatP= 7.15D-01
 IDIUse=3 WtCom= 7.76D-01 WtEn= 2.24D-01
 Coeff-Com:  0.100D+01
 Coeff-En:   0.100D+01
 Coeff:      0.100D+01
 Gap=     0.260 Goal=   None    Shift=    0.000
 Gap=     0.357 Goal=   None    Shift=    0.000
 GapD=    0.260 DampG=1.000 DampE=0.500 DampFc=0.5000 IDamp=-1.
 Damping current iteration by 5.00D-01
 RMSDP=3.08D-03 MaxDP=9.98D-02              OVMax= 1.57D-01

 Cycle   2  Pass 1  IDiag  1:
 RMSU=  1.09D-03    CP:  9.51D-01
 E= -157.633395950711     Delta-E=       -0.087209000946 Rises=F Damp=T
 DIIS: error= 5.45D-03 at cycle   2 NSaved=   2.
 NSaved= 2 IEnMin= 2 EnMin= -157.633395950711     IErMin= 2 ErrMin= 5.45D-03
 ErrMax= 5.45D-03 EMaxC= 1.00D-01 BMatC= 3.90D-02 BMatP= 7.15D-01
 IDIUse=3 WtCom= 9.45D-01 WtEn= 5.45D-02
 Coeff-Com: -0.779D-01 0.108D+01
 Coeff-En:   0.000D+00 0.100D+01
 Coeff:     -0.737D-01 0.107D+01
 Gap=     0.295 Goal=   None    Shift=    0.000
 Gap=     0.371 Goal=   None    Shift=    0.000
 RMSDP=1.05D-03 MaxDP=3.40D-02 DE=-8.72D-02 OVMax= 8.85D-02

 Cycle   3  Pass 1  IDiag  1:
 RMSU=  8.63D-04    CP:  9.54D-01  9.51D-01
 E= -157.719074249013     Delta-E=       -0.085678298302 Rises=F Damp=F
 DIIS: error= 2.32D-03 at cycle   3 NSaved=   3.
 NSaved= 3 IEnMin= 3 EnMin= -157.719074249013     IErMin= 3 ErrMin= 2.32D-03
 ErrMax= 2.32D-03 EMaxC= 1.00D-01 BMatC= 4.73D-03 BMatP= 3.90D-02
 IDIUse=3 WtCom= 9.77D-01 WtEn= 2.32D-02
 Coeff-Com: -0.571D-01 0.208D+00 0.849D+00
 Coeff-En:   0.000D+00 0.000D+00 0.100D+01
 Coeff:     -0.558D-01 0.203D+00 0.852D+00
 Gap=     0.295 Goal=   None    Shift=    0.000
 Gap=     0.339 Goal=   None    Shift=    0.000
 RMSDP=1.70D-04 MaxDP=6.36D-03 DE=-8.57D-02 OVMax= 1.02D-02

 Cycle   4  Pass 1  IDiag  1:
 RMSU=  1.35D-04    CP:  9.50D-01  9.70D-01  1.01D+00
 E= -157.720242973936     Delta-E=       -0.001168724924 Rises=F Damp=F
 DIIS: error= 6.76D-04 at cycle   4 NSaved=   4.
 NSaved= 4 IEnMin= 4 EnMin= -157.720242973936     IErMin= 4 ErrMin= 6.76D-04
 ErrMax= 6.76D-04 EMaxC= 1.00D-01 BMatC= 7.12D-04 BMatP= 4.73D-03
 IDIUse=3 WtCom= 9.93D-01 WtEn= 6.76D-03
 Coeff-Com: -0.155D-01 0.266D-01 0.297D+00 0.692D+00
 Coeff-En:   0.000D+00 0.000D+00 0.000D+00 0.100D+01
 Coeff:     -0.154D-01 0.264D-01 0.295D+00 0.694D+00
 Gap=     0.293 Goal=   None    Shift=    0.000
 Gap=     0.343 Goal=   None    Shift=    0.000
 RMSDP=7.00D-05 MaxDP=4.09D-03 DE=-1.17D-03 OVMax= 5.97D-03

 Cycle   5  Pass 1  IDiag  1:
 RMSU=  3.82D-05    CP:  9.51D-01  9.63D-01  1.04D+00  8.74D-01
 E= -157.720449575119     Delta-E=       -0.000206601183 Rises=F Damp=F
 DIIS: error= 2.52D-04 at cycle   5 NSaved=   5.
 NSaved= 5 IEnMin= 5 EnMin= -157.720449575119     IErMin= 5 ErrMin= 2.52D-04
 ErrMax= 2.52D-04 EMaxC= 1.00D-01 BMatC= 7.83D-05 BMatP= 7.12D-04
 IDIUse=3 WtCom= 9.97D-01 WtEn= 2.52D-03
 Coeff-Com:  0.390D-02-0.195D-01-0.453D-01 0.144D+00 0.917D+00
 Coeff-En:   0.000D+00 0.000D+00 0.000D+00 0.000D+00 0.100D+01
 Coeff:      0.389D-02-0.194D-01-0.452D-01 0.144D+00 0.917D+00
 Gap=     0.294 Goal=   None    Shift=    0.000
 Gap=     0.343 Goal=   None    Shift=    0.000
 RMSDP=3.66D-05 MaxDP=1.56D-03 DE=-2.07D-04 OVMax= 3.00D-03

 Cycle   6  Pass 1  IDiag  1:
 RMSU=  1.69D-05    CP:  9.51D-01  9.58D-01  1.05D+00  1.01D+00  1.24D+00
 E= -157.720487956155     Delta-E=       -0.000038381036 Rises=F Damp=F
 DIIS: error= 1.17D-04 at cycle   6 NSaved=   6.
 NSaved= 6 IEnMin= 6 EnMin= -157.720487956155     IErMin= 6 ErrMin= 1.17D-04
 ErrMax= 1.17D-04 EMaxC= 1.00D-01 BMatC= 9.82D-06 BMatP= 7.83D-05
 IDIUse=3 WtCom= 9.99D-01 WtEn= 1.17D-03
 Coeff-Com:  0.303D-02-0.667D-02-0.604D-01-0.120D+00 0.751D-01 0.111D+01
 Coeff-En:   0.000D+00 0.000D+00 0.000D+00 0.000D+00 0.000D+00 0.100D+01
 Coeff:      0.303D-02-0.666D-02-0.604D-01-0.120D+00 0.750D-01 0.111D+01
 Gap=     0.295 Goal=   None    Shift=    0.000
 Gap=     0.343 Goal=   None    Shift=    0.000
 RMSDP=2.04D-05 MaxDP=9.28D-04 DE=-3.84D-05 OVMax= 1.79D-03

 Cycle   7  Pass 1  IDiag  1:
 RMSU=  1.00D-05    CP:  9.51D-01  9.57D-01  1.05D+00  1.07D+00  1.38D+00
                    CP:  1.37D+00
 E= -157.720495212123     Delta-E=       -0.000007255968 Rises=F Damp=F
 DIIS: error= 2.44D-05 at cycle   7 NSaved=   7.
 NSaved= 7 IEnMin= 7 EnMin= -157.720495212123     IErMin= 7 ErrMin= 2.44D-05
 ErrMax= 2.44D-05 EMaxC= 1.00D-01 BMatC= 7.69D-07 BMatP= 9.82D-06
 IDIUse=1 WtCom= 1.00D+00 WtEn= 0.00D+00
 Coeff-Com:  0.294D-04 0.539D-03-0.622D-02-0.337D-01-0.580D-01 0.215D+00
 Coeff-Com:  0.882D+00
 Coeff:      0.294D-04 0.539D-03-0.622D-02-0.337D-01-0.580D-01 0.215D+00
 Coeff:      0.882D+00
 Gap=     0.295 Goal=   None    Shift=    0.000
 Gap=     0.343 Goal=   None    Shift=    0.000
 RMSDP=4.83D-06 MaxDP=2.12D-04 DE=-7.26D-06 OVMax= 2.47D-04

 Cycle   8  Pass 1  IDiag  1:
 RMSU=  2.08D-06    CP:  9.51D-01  9.58D-01  1.05D+00  1.08D+00  1.38D+00
                    CP:  1.46D+00  1.17D+00
 E= -157.720495565856     Delta-E=       -0.000000353734 Rises=F Damp=F
 DIIS: error= 8.41D-06 at cycle   8 NSaved=   8.
 NSaved= 8 IEnMin= 8 EnMin= -157.720495565856     IErMin= 8 ErrMin= 8.41D-06
 ErrMax= 8.41D-06 EMaxC= 1.00D-01 BMatC= 9.29D-08 BMatP= 7.69D-07
 IDIUse=1 WtCom= 1.00D+00 WtEn= 0.00D+00
 Coeff-Com: -0.391D-03 0.968D-03 0.592D-02 0.638D-02-0.193D-01-0.846D-01
 Coeff-Com:  0.182D+00 0.909D+00
 Coeff:     -0.391D-03 0.968D-03 0.592D-02 0.638D-02-0.193D-01-0.846D-01
 Coeff:      0.182D+00 0.909D+00
 Gap=     0.295 Goal=   None    Shift=    0.000
 Gap=     0.343 Goal=   None    Shift=    0.000
 RMSDP=2.24D-06 MaxDP=9.14D-05 DE=-3.54D-07 OVMax= 9.67D-05

 Cycle   9  Pass 1  IDiag  1:
 RMSU=  5.39D-07    CP:  9.51D-01  9.58D-01  1.05D+00  1.08D+00  1.37D+00
                    CP:  1.49D+00  1.29D+00  1.10D+00
 E= -157.720495600474     Delta-E=       -0.000000034617 Rises=F Damp=F
 DIIS: error= 4.93D-06 at cycle   9 NSaved=   9.
 NSaved= 9 IEnMin= 9 EnMin= -157.720495600474     IErMin= 9 ErrMin= 4.93D-06
 ErrMax= 4.93D-06 EMaxC= 1.00D-01 BMatC= 1.45D-08 BMatP= 9.29D-08
 IDIUse=1 WtCom= 1.00D+00 WtEn= 0.00D+00
 Coeff-Com: -0.138D-03 0.306D-03 0.276D-02 0.543D-02-0.161D-02-0.524D-01
 Coeff-Com: -0.140D-01 0.340D+00 0.720D+00
 Coeff:     -0.138D-03 0.306D-03 0.276D-02 0.543D-02-0.161D-02-0.524D-01
 Coeff:     -0.140D-01 0.340D+00 0.720D+00
 Gap=     0.295 Goal=   None    Shift=    0.000
 Gap=     0.343 Goal=   None    Shift=    0.000
 RMSDP=4.93D-07 MaxDP=1.65D-05 DE=-3.46D-08 OVMax= 1.82D-05

 Cycle  10  Pass 1  IDiag  1:
 RMSU=  1.87D-07    CP:  9.51D-01  9.58D-01  1.05D+00  1.08D+00  1.37D+00
                    CP:  1.49D+00  1.31D+00  1.14D+00  9.67D-01
 E= -157.720495604780     Delta-E=       -0.000000004306 Rises=F Damp=F
 DIIS: error= 8.67D-07 at cycle  10 NSaved=  10.
 NSaved=10 IEnMin=10 EnMin= -157.720495604780     IErMin=10 ErrMin= 8.67D-07
 ErrMax= 8.67D-07 EMaxC= 1.00D-01 BMatC= 4.79D-10 BMatP= 1.45D-08
 IDIUse=1 WtCom= 1.00D+00 WtEn= 0.00D+00
 Coeff-Com:  0.297D-04-0.671D-04-0.302D-03-0.101D-03 0.154D-02 0.233D-02
 Coeff-Com: -0.167D-01-0.433D-01 0.738D-01 0.983D+00
 Coeff:      0.297D-04-0.671D-04-0.302D-03-0.101D-03 0.154D-02 0.233D-02
 Coeff:     -0.167D-01-0.433D-01 0.738D-01 0.983D+00
 Gap=     0.295 Goal=   None    Shift=    0.000
 Gap=     0.343 Goal=   None    Shift=    0.000
 RMSDP=1.23D-07 MaxDP=5.02D-06 DE=-4.31D-09 OVMax= 7.14D-06

 Cycle  11  Pass 1  IDiag  1:
 RMSU=  4.69D-08    CP:  9.51D-01  9.58D-01  1.05D+00  1.08D+00  1.37D+00
                    CP:  1.49D+00  1.31D+00  1.16D+00  1.06D+00  1.18D+00
 E= -157.720495605022     Delta-E=       -0.000000000242 Rises=F Damp=F
 DIIS: error= 1.89D-07 at cycle  11 NSaved=  11.
 NSaved=11 IEnMin=11 EnMin= -157.720495605022     IErMin=11 ErrMin= 1.89D-07
 ErrMax= 1.89D-07 EMaxC= 1.00D-01 BMatC= 3.22D-11 BMatP= 4.79D-10
 IDIUse=1 WtCom= 1.00D+00 WtEn= 0.00D+00
 Coeff-Com:  0.894D-05-0.210D-04-0.160D-03-0.243D-03 0.294D-03 0.255D-02
 Coeff-Com: -0.714D-03-0.210D-01-0.329D-01 0.750D-01 0.977D+00
 Coeff:      0.894D-05-0.210D-04-0.160D-03-0.243D-03 0.294D-03 0.255D-02
 Coeff:     -0.714D-03-0.210D-01-0.329D-01 0.750D-01 0.977D+00
 Gap=     0.295 Goal=   None    Shift=    0.000
 Gap=     0.343 Goal=   None    Shift=    0.000
 RMSDP=3.08D-08 MaxDP=1.00D-06 DE=-2.42D-10 OVMax= 2.59D-06

 Cycle  12  Pass 1  IDiag  1:
 RMSU=  1.43D-08    CP:  9.51D-01  9.58D-01  1.05D+00  1.08D+00  1.37D+00
                    CP:  1.49D+00  1.31D+00  1.16D+00  1.07D+00  1.24D+00
                    CP:  1.16D+00
 E= -157.720495605040     Delta-E=       -0.000000000019 Rises=F Damp=F
 DIIS: error= 6.35D-08 at cycle  12 NSaved=  12.
 NSaved=12 IEnMin=12 EnMin= -157.720495605040     IErMin=12 ErrMin= 6.35D-08
 ErrMax= 6.35D-08 EMaxC= 1.00D-01 BMatC= 5.96D-12 BMatP= 3.22D-11
 IDIUse=1 WtCom= 1.00D+00 WtEn= 0.00D+00
 Coeff-Com: -0.627D-06 0.845D-06-0.153D-04-0.474D-04-0.254D-04 0.428D-03
 Coeff-Com:  0.123D-02-0.178D-02-0.160D-01-0.716D-01 0.260D+00 0.828D+00
 Coeff:     -0.627D-06 0.845D-06-0.153D-04-0.474D-04-0.254D-04 0.428D-03
 Coeff:      0.123D-02-0.178D-02-0.160D-01-0.716D-01 0.260D+00 0.828D+00
 Gap=     0.295 Goal=   None    Shift=    0.000
 Gap=     0.343 Goal=   None    Shift=    0.000
 RMSDP=1.02D-08 MaxDP=4.02D-07 DE=-1.86D-11 OVMax= 7.96D-07

 Cycle  13  Pass 1  IDiag  1:
 RMSU=  4.16D-09    CP:  9.51D-01  9.58D-01  1.05D+00  1.08D+00  1.37D+00
                    CP:  1.49D+00  1.31D+00  1.16D+00  1.07D+00  1.25D+00
                    CP:  1.24D+00  1.21D+00
 E= -157.720495605042     Delta-E=       -0.000000000001 Rises=F Damp=F
 DIIS: error= 2.30D-08 at cycle  13 NSaved=  13.
 NSaved=13 IEnMin=13 EnMin= -157.720495605042     IErMin=13 ErrMin= 2.30D-08
 ErrMax= 2.30D-08 EMaxC= 1.00D-01 BMatC= 7.84D-13 BMatP= 5.96D-12
 IDIUse=1 WtCom= 1.00D+00 WtEn= 0.00D+00
 Coeff-Com: -0.126D-05 0.274D-05 0.130D-04 0.114D-04-0.395D-04-0.157D-03
 Coeff-Com:  0.457D-03 0.190D-02-0.114D-02-0.306D-01-0.342D-01 0.262D+00
 Coeff-Com:  0.801D+00
 Coeff:     -0.126D-05 0.274D-05 0.130D-04 0.114D-04-0.395D-04-0.157D-03
 Coeff:      0.457D-03 0.190D-02-0.114D-02-0.306D-01-0.342D-01 0.262D+00
 Coeff:      0.801D+00
 Gap=     0.295 Goal=   None    Shift=    0.000
 Gap=     0.343 Goal=   None    Shift=    0.000
 RMSDP=3.14D-09 MaxDP=1.25D-07 DE=-1.36D-12 OVMax= 2.30D-07

 SCF Done:  E(UM062X) =  -157.720495605     A.U. after   13 cycles
             Convg  =    0.3144D-08             -V/T =  2.0050
 <Sx>= 0.0000 <Sy>= 0.0000 <Sz>= 0.5000 <S**2>= 0.7549 S= 0.5025
 <L.S>= 0.000000000000E+00
 KE= 1.569404649956D+02 PE=-6.146968976184D+02 EE= 1.750123432167D+02
 Annihilation of the first spin contaminant:
 S**2 before annihilation     0.7549,   after     0.7500
 Leave Link  502 at Tue May  8 09:58:37 2018, MaxMem=  671088640 cpu:    1308.8
 (Enter /shared/apps/gaussian/G09_LINUX_LINDA/g09/l601.exe)
 Copying SCF densities to generalized density rwf, IOpCl= 1 IROHF=0.

 **********************************************************************

            Population analysis using the SCF density.

 **********************************************************************

 Orbital symmetries:
 Alpha Orbitals:
       Occupied  (A) (A) (A) (A) (A) (A) (A) (A) (A) (A) (A) (A)
                 (A) (A) (A) (A) (A)
       Virtual   (A) (A) (A) (A) (A) (A) (A) (A) (A) (A) (A) (A)
                 (A) (A) (A) (A) (A) (A) (A) (A) (A) (A) (A) (A)
                 (A) (A) (A) (A) (A) (A) (A) (A) (A) (A) (A) (A)
                 (A) (A) (A) (A) (A) (A) (A) (A) (A) (A) (A) (A)
                 (A) (A) (A) (A) (A) (A) (A) (A) (A) (A) (A) (A)
                 (A) (A) (A) (A) (A) (A) (A) (A) (A) (A) (A) (A)
                 (A) (A) (A) (A) (A) (A) (A) (A) (A) (A) (A) (A)
                 (A) (A) (A) (A) (A) (A) (A) (A) (A) (A) (A) (A)
                 (A) (A) (A) (A) (A) (A) (A) (A) (A) (A) (A) (A)
                 (A) (A) (A) (A) (A) (A) (A) (A) (A) (A) (A) (A)
                 (A) (A) (A) (A) (A) (A) (A) (A) (A) (A) (A) (A)
                 (A) (A) (A) (A) (A) (A) (A) (A) (A) (A) (A) (A)
                 (A) (A) (A) (A) (A) (A) (A) (A) (A) (A) (A) (A)
                 (A) (A) (A) (A) (A) (A) (A) (A) (A) (A) (A) (A)
                 (A) (A) (A) (A) (A) (A) (A) (A) (A) (A) (A) (A)
                 (A) (A) (A) (A) (A) (A) (A) (A) (A) (A) (A) (A)
                 (A) (A) (A) (A) (A) (A) (A) (A)
 Beta  Orbitals:
       Occupied  (A) (A) (A) (A) (A) (A) (A) (A) (A) (A) (A) (A)
                 (A) (A) (A) (A)
       Virtual   (A) (A) (A) (A) (A) (A) (A) (A) (A) (A) (A) (A)
                 (A) (A) (A) (A) (A) (A) (A) (A) (A) (A) (A) (A)
                 (A) (A) (A) (A) (A) (A) (A) (A) (A) (A) (A) (A)
                 (A) (A) (A) (A) (A) (A) (A) (A) (A) (A) (A) (A)
                 (A) (A) (A) (A) (A) (A) (A) (A) (A) (A) (A) (A)
                 (A) (A) (A) (A) (A) (A) (A) (A) (A) (A) (A) (A)
                 (A) (A) (A) (A) (A) (A) (A) (A) (A) (A) (A) (A)
                 (A) (A) (A) (A) (A) (A) (A) (A) (A) (A) (A) (A)
                 (A) (A) (A) (A) (A) (A) (A) (A) (A) (A) (A) (A)
                 (A) (A) (A) (A) (A) (A) (A) (A) (A) (A) (A) (A)
                 (A) (A) (A) (A) (A) (A) (A) (A) (A) (A) (A) (A)
                 (A) (A) (A) (A) (A) (A) (A) (A) (A) (A) (A) (A)
                 (A) (A) (A) (A) (A) (A) (A) (A) (A) (A) (A) (A)
                 (A) (A) (A) (A) (A) (A) (A) (A) (A) (A) (A) (A)
                 (A) (A) (A) (A) (A) (A) (A) (A) (A) (A) (A) (A)
                 (A) (A) (A) (A) (A) (A) (A) (A) (A) (A) (A) (A)
                 (A) (A) (A) (A) (A) (A) (A) (A) (A)
 The electronic state is 2-A.
 Alpha  occ. eigenvalues --  -10.54572 -10.53413 -10.52999 -10.52615  -0.90800
 Alpha  occ. eigenvalues --   -0.81504  -0.70859  -0.65414  -0.53451  -0.52017
 Alpha  occ. eigenvalues --   -0.50257  -0.44486  -0.43256  -0.40558  -0.39589
 Alpha  occ. eigenvalues --   -0.38000  -0.27526
 Alpha virt. eigenvalues --    0.01961   0.03466   0.03877   0.04115   0.06412
 Alpha virt. eigenvalues --    0.07006   0.07205   0.07725   0.08111   0.10461
 Alpha virt. eigenvalues --    0.10840   0.11594   0.11939   0.12229   0.17001
 Alpha virt. eigenvalues --    0.17941   0.19676   0.20293   0.21050   0.22899
 Alpha virt. eigenvalues --    0.23602   0.24158   0.25228   0.28068   0.29140
 Alpha virt. eigenvalues --    0.30616   0.32382   0.33498   0.42782   0.43882
 Alpha virt. eigenvalues --    0.44445   0.45146   0.46243   0.47390   0.49063
 Alpha virt. eigenvalues --    0.50160   0.52611   0.54356   0.54960   0.56524
 Alpha virt. eigenvalues --    0.58134   0.58588   0.60484   0.61528   0.62335
 Alpha virt. eigenvalues --    0.62408   0.63191   0.64399   0.65475   0.68444
 Alpha virt. eigenvalues --    0.70052   0.72636   0.76108   0.80670   0.82561
 Alpha virt. eigenvalues --    0.84532   0.88535   0.90198   0.95086   0.97237
 Alpha virt. eigenvalues --    0.98100   0.99018   1.00033   1.03481   1.05068
 Alpha virt. eigenvalues --    1.08425   1.10473   1.13349   1.16734   1.18829
 Alpha virt. eigenvalues --    1.20374   1.21657   1.22761   1.25146   1.26590
 Alpha virt. eigenvalues --    1.27606   1.29259   1.32234   1.32784   1.35830
 Alpha virt. eigenvalues --    1.37265   1.39127   1.39940   1.41769   1.42797
 Alpha virt. eigenvalues --    1.44844   1.45445   1.47755   1.48765   1.50755
 Alpha virt. eigenvalues --    1.52993   1.54744   1.56426   1.58285   1.58650
 Alpha virt. eigenvalues --    1.59382   1.60265   1.63475   1.68735   1.72882
 Alpha virt. eigenvalues --    2.33831   2.39126   2.43806   2.51356   2.54650
 Alpha virt. eigenvalues --    2.57079   2.63390   2.68529   2.72116   2.74662
 Alpha virt. eigenvalues --    2.76900   2.79019   2.81400   2.85233   2.87711
 Alpha virt. eigenvalues --    2.88875   2.94291   2.96200   2.97615   2.99926
 Alpha virt. eigenvalues --    3.01626   3.05059   3.09185   3.10814   3.11703
 Alpha virt. eigenvalues --    3.14005   3.16487   3.17467   3.20173   3.21864
 Alpha virt. eigenvalues --    3.23472   3.26430   3.28739   3.29901   3.33288
 Alpha virt. eigenvalues --    3.34086   3.35953   3.36813   3.41350   3.46210
 Alpha virt. eigenvalues --    3.49946   3.53719   3.57711   3.60821   3.62194
 Alpha virt. eigenvalues --    3.67264   3.69276   3.71668   3.73959   3.75785
 Alpha virt. eigenvalues --    3.81449   3.84706   3.88913   3.92139   3.93436
 Alpha virt. eigenvalues --    3.96347   3.98000   4.01158   4.03780   4.05348
 Alpha virt. eigenvalues --    4.08477   4.09081   4.10509   4.13610   4.14960
 Alpha virt. eigenvalues --    4.15959   4.19869   4.23498   4.27825   4.28777
 Alpha virt. eigenvalues --    4.30923   4.31826   4.35579   4.39465   4.42774
 Alpha virt. eigenvalues --    4.44013   4.45505   4.49871   4.53893   4.56606
 Alpha virt. eigenvalues --    4.59711   4.61082   4.65677   4.73740   4.75198
 Alpha virt. eigenvalues --    4.87051   4.98885   5.13267   5.40130   5.44458
 Alpha virt. eigenvalues --    5.48442   5.49463   5.53366   5.53850   5.57703
 Alpha virt. eigenvalues --    5.63720  24.14159  24.25125  24.35549  24.50158
  Beta  occ. eigenvalues --  -10.53760 -10.53450 -10.52988 -10.52616  -0.90248
  Beta  occ. eigenvalues --   -0.80071  -0.69437  -0.64302  -0.52874  -0.51369
  Beta  occ. eigenvalues --   -0.49409  -0.43748  -0.42472  -0.40275  -0.38641
  Beta  occ. eigenvalues --   -0.37555
  Beta virt. eigenvalues --   -0.03244   0.01557   0.03391   0.03586   0.04038
  Beta virt. eigenvalues --    0.06499   0.06855   0.07139   0.07526   0.08675
  Beta virt. eigenvalues --    0.10389   0.10809   0.10886   0.12162   0.12563
  Beta virt. eigenvalues --    0.16047   0.17837   0.20240   0.20441   0.21138
  Beta virt. eigenvalues --    0.23212   0.23695   0.24315   0.25268   0.28095
  Beta virt. eigenvalues --    0.29177   0.30621   0.32515   0.33558   0.42875
  Beta virt. eigenvalues --    0.43970   0.44646   0.45115   0.46358   0.47275
  Beta virt. eigenvalues --    0.48579   0.50450   0.52609   0.54444   0.55440
  Beta virt. eigenvalues --    0.57606   0.58588   0.58799   0.60384   0.62048
  Beta virt. eigenvalues --    0.62490   0.62774   0.63055   0.64535   0.65823
  Beta virt. eigenvalues --    0.68411   0.69993   0.72036   0.75874   0.80328
  Beta virt. eigenvalues --    0.82609   0.84601   0.88573   0.90161   0.94679
  Beta virt. eigenvalues --    0.97133   0.97977   0.98842   0.99853   1.03551
  Beta virt. eigenvalues --    1.05005   1.08375   1.10518   1.13364   1.16738
  Beta virt. eigenvalues --    1.18879   1.20249   1.21981   1.22798   1.25078
  Beta virt. eigenvalues --    1.26652   1.27674   1.29285   1.32310   1.33220
  Beta virt. eigenvalues --    1.35710   1.37506   1.39079   1.39871   1.41848
  Beta virt. eigenvalues --    1.42990   1.45349   1.45421   1.47555   1.48801
  Beta virt. eigenvalues --    1.50630   1.53062   1.55140   1.56951   1.58274
  Beta virt. eigenvalues --    1.58653   1.59567   1.60435   1.63609   1.68669
  Beta virt. eigenvalues --    1.73025   2.34808   2.39695   2.44137   2.51742
  Beta virt. eigenvalues --    2.55191   2.57512   2.63724   2.69377   2.72759
  Beta virt. eigenvalues --    2.75593   2.78355   2.80631   2.82900   2.85929
  Beta virt. eigenvalues --    2.88393   2.90618   2.95359   2.97980   2.98788
  Beta virt. eigenvalues --    3.02524   3.02863   3.06848   3.10174   3.12140
  Beta virt. eigenvalues --    3.12539   3.15050   3.17110   3.18633   3.22475
  Beta virt. eigenvalues --    3.24138   3.25791   3.28339   3.30534   3.31636
  Beta virt. eigenvalues --    3.34032   3.34575   3.36935   3.38062   3.43036
  Beta virt. eigenvalues --    3.47983   3.54035   3.54684   3.58936   3.60937
  Beta virt. eigenvalues --    3.64008   3.67988   3.71043   3.71965   3.74856
  Beta virt. eigenvalues --    3.77003   3.81646   3.85655   3.90478   3.93089
  Beta virt. eigenvalues --    3.93838   3.96607   3.98319   4.01944   4.05334
  Beta virt. eigenvalues --    4.06197   4.08951   4.10691   4.11756   4.14411
  Beta virt. eigenvalues --    4.15291   4.16962   4.20579   4.24243   4.28705
  Beta virt. eigenvalues --    4.29592   4.32182   4.32528   4.35838   4.40061
  Beta virt. eigenvalues --    4.43810   4.44444   4.46158   4.50368   4.54920
  Beta virt. eigenvalues --    4.56737   4.61146   4.61495   4.65819   4.73897
  Beta virt. eigenvalues --    4.76715   4.87898   5.01450   5.13930   5.40614
  Beta virt. eigenvalues --    5.48125   5.50667   5.51192   5.53425   5.53979
  Beta virt. eigenvalues --    5.58592   5.63523  24.15156  24.25286  24.35798
  Beta virt. eigenvalues --   24.50298
          Condensed to atoms (all electrons):
              1          2          3          4          5          6
     1  C    5.554693   0.050552   0.083766   0.042785   0.408647   0.412978
     2  C    0.050552   5.145824  -0.014364   0.155655  -0.001800  -0.005879
     3  C    0.083766  -0.014364   5.356774  -0.037154  -0.040760  -0.066894
     4  C    0.042785   0.155655  -0.037154   5.337400   0.004248   0.017409
     5  H    0.408647  -0.001800  -0.040760   0.004248   0.540832  -0.035191
     6  H    0.412978  -0.005879  -0.066894   0.017409  -0.035191   0.526657
     7  H   -0.001934   0.430535   0.029812  -0.068323   0.000027  -0.000001
     8  H    0.001382   0.433774  -0.029896  -0.032549   0.000158  -0.000091
     9  H   -0.003759   0.394880  -0.000634  -0.019225  -0.000647  -0.000087
    10  H   -0.058335   0.009058   0.454829  -0.059282  -0.010990   0.004121
    11  H   -0.047973  -0.001467   0.423271  -0.032674   0.001612   0.004930
    12  H   -0.003296  -0.020507  -0.054810   0.428953   0.000881  -0.001668
    13  H    0.000201  -0.055790  -0.046289   0.464670  -0.000427   0.000351
              7          8          9         10         11         12
     1  C   -0.001934   0.001382  -0.003759  -0.058335  -0.047973  -0.003296
     2  C    0.430535   0.433774   0.394880   0.009058  -0.001467  -0.020507
     3  C    0.029812  -0.029896  -0.000634   0.454829   0.423271  -0.054810
     4  C   -0.068323  -0.032549  -0.019225  -0.059282  -0.032674   0.428953
     5  H    0.000027   0.000158  -0.000647  -0.010990   0.001612   0.000881
     6  H   -0.000001  -0.000091  -0.000087   0.004121   0.004930  -0.001668
     7  H    0.533491  -0.022371  -0.021548   0.000987  -0.000538  -0.005292
     8  H   -0.022371   0.560906  -0.041206  -0.001033   0.000540   0.007182
     9  H   -0.021548  -0.041206   0.566833  -0.008714   0.000641  -0.004827
    10  H    0.000987  -0.001033  -0.008714   0.563599  -0.041278   0.005588
    11  H   -0.000538   0.000540   0.000641  -0.041278   0.574165   0.001903
    12  H   -0.005292   0.007182  -0.004827   0.005588   0.001903   0.541014
    13  H   -0.001324  -0.017679   0.007563   0.001985  -0.012059  -0.028846
             13
     1  C    0.000201
     2  C   -0.055790
     3  C   -0.046289
     4  C    0.464670
     5  H   -0.000427
     6  H    0.000351
     7  H   -0.001324
     8  H   -0.017679
     9  H    0.007563
    10  H    0.001985
    11  H   -0.012059
    12  H   -0.028846
    13  H    0.544883
 Mulliken atomic charges:
              1
     1  C   -0.439706
     2  C   -0.520470
     3  C   -0.057652
     4  C   -0.201912
     5  H    0.133408
     6  H    0.143365
     7  H    0.126477
     8  H    0.140883
     9  H    0.130730
    10  H    0.139466
    11  H    0.128927
    12  H    0.133725
    13  H    0.142760
 Sum of Mulliken atomic charges =   0.00000
 Mulliken charges with hydrogens summed into heavy atoms:
              1
     1  C   -0.162933
     2  C   -0.122381
     3  C    0.210741
     4  C    0.074572
 Sum of Mulliken charges with hydrogens summed into heavy atoms =   0.00000
          Atomic-Atomic Spin Densities.
              1          2          3          4          5          6
     1  C    1.173605  -0.015904  -0.075415   0.026644  -0.011114  -0.014289
     2  C   -0.015904   0.012086   0.012839  -0.014037  -0.001012  -0.003466
     3  C   -0.075415   0.012839  -0.021601  -0.017849   0.007014   0.005361
     4  C    0.026644  -0.014037  -0.017849   0.043602   0.000963   0.005534
     5  H   -0.011114  -0.001012   0.007014   0.000963  -0.027275   0.003835
     6  H   -0.014289  -0.003466   0.005361   0.005534   0.003835  -0.027339
     7  H   -0.000439   0.004156   0.001614  -0.006194  -0.000011  -0.000046
     8  H    0.000356  -0.006764   0.000423   0.006322  -0.000003   0.000017
     9  H    0.002346   0.007644  -0.007552  -0.002726   0.000112   0.000250
    10  H   -0.012543   0.015882   0.005568  -0.015225  -0.002852  -0.001345
    11  H   -0.050486  -0.006954   0.023318   0.014085   0.001873   0.001334
    12  H   -0.002890   0.004548  -0.001538  -0.003353  -0.000095  -0.000896
    13  H    0.003133   0.000879  -0.000318  -0.005706   0.000002   0.000166
              7          8          9         10         11         12
     1  C   -0.000439   0.000356   0.002346  -0.012543  -0.050486  -0.002890
     2  C    0.004156  -0.006764   0.007644   0.015882  -0.006954   0.004548
     3  C    0.001614   0.000423  -0.007552   0.005568   0.023318  -0.001538
     4  C   -0.006194   0.006322  -0.002726  -0.015225   0.014085  -0.003353
     5  H   -0.000011  -0.000003   0.000112  -0.002852   0.001873  -0.000095
     6  H   -0.000046   0.000017   0.000250  -0.001345   0.001334  -0.000896
     7  H    0.002001  -0.000449  -0.000263   0.000440  -0.000166   0.000470
     8  H   -0.000449   0.000686   0.000697  -0.001196   0.000164  -0.000186
     9  H   -0.000263   0.000697  -0.003892  -0.000908   0.000379   0.000246
    10  H    0.000440  -0.001196  -0.000908   0.057404  -0.017689   0.000878
    11  H   -0.000166   0.000164   0.000379  -0.017689   0.075435  -0.001107
    12  H    0.000470  -0.000186   0.000246   0.000878  -0.001107   0.000117
    13  H   -0.000164  -0.000116   0.000068  -0.000056   0.000880   0.000599
             13
     1  C    0.003133
     2  C    0.000879
     3  C   -0.000318
     4  C   -0.005706
     5  H    0.000002
     6  H    0.000166
     7  H   -0.000164
     8  H   -0.000116
     9  H    0.000068
    10  H   -0.000056
    11  H    0.000880
    12  H    0.000599
    13  H   -0.000262
 Mulliken atomic spin densities:
              1
     1  C    1.023003
     2  C    0.009897
     3  C   -0.068135
     4  C    0.032060
     5  H   -0.028563
     6  H   -0.030884
     7  H    0.000949
     8  H   -0.000049
     9  H   -0.003598
    10  H    0.028359
    11  H    0.041066
    12  H   -0.003208
    13  H   -0.000896
 Sum of Mulliken atomic spin densities =   1.00000
 Electronic spatial extent (au):  <R**2>=            366.5137
 Charge=              0.0000 electrons
 Dipole moment (field-independent basis, Debye):
    X=              0.5499    Y=             -0.1612    Z=             -0.2023  Tot=              0.6077
 Quadrupole moment (field-independent basis, Debye-Ang):
   XX=            -30.8089   YY=            -28.2500   ZZ=            -27.4685
   XY=              1.3674   XZ=              0.8128   YZ=             -0.1834
 Traceless Quadrupole moment (field-independent basis, Debye-Ang):
   XX=             -1.9665   YY=              0.5925   ZZ=              1.3740
   XY=              1.3674   XZ=              0.8128   YZ=             -0.1834
 Octapole moment (field-independent basis, Debye-Ang**2):
  XXX=              8.4826  YYY=              0.8054  ZZZ=              0.9802  XYY=             -0.3274
  XXY=             -1.0145  XXZ=             -0.9390  XZZ=              0.9268  YZZ=             -0.5137
  YYZ=             -1.6557  XYZ=             -0.3696
 Hexadecapole moment (field-independent basis, Debye-Ang**3):
 XXXX=           -380.0938 YYYY=            -90.3041 ZZZZ=            -81.4206 XXXY=              9.2228
 XXXZ=              9.9169 YYYX=              2.3399 YYYZ=             -0.8460 ZZZX=              0.2639
 ZZZY=             -0.0694 XXYY=            -75.3283 XXZZ=            -72.2368 YYZZ=            -29.7246
 XXYZ=             -0.7668 YYXZ=              1.6690 ZZXY=              1.5133
 N-N= 1.250235938011D+02 E-N=-9.167276303178D+02  KE= 2.347527048629D+02
                          Isotropic Fermi Contact Couplings
        Atom                 a.u.       MegaHertz       Gauss      10(-4) cm-1
     1  C(13)              0.32816     368.91918     131.63953     123.05819
     2  C(13)             -0.00071      -0.80113      -0.28586      -0.26723
     3  C(13)             -0.02111     -23.73023      -8.46754      -7.91555
     4  C(13)              0.00806       9.06242       3.23370       3.02290
     5  H(1)              -0.00813     -36.33513     -12.96528     -12.12009
     6  H(1)              -0.00812     -36.30825     -12.95569     -12.11113
     7  H(1)               0.00055       2.44922       0.87394       0.81697
     8  H(1)               0.00039       1.76550       0.62998       0.58891
     9  H(1)               0.00004       0.16097       0.05744       0.05369
    10  H(1)               0.01457      65.10474      23.23099      21.71660
    11  H(1)               0.02583     115.45660      41.19779      38.51218
    12  H(1)              -0.00030      -1.34404      -0.47959      -0.44832
    13  H(1)              -0.00044      -1.95399      -0.69723      -0.65178
 --------------------------------------------------------
       Center         ----  Spin Dipole Couplings  ----
                      3XX-RR        3YY-RR        3ZZ-RR
 --------------------------------------------------------
     1   Atom        0.103942      0.394853     -0.498796
     2   Atom        0.003657     -0.000719     -0.002938
     3   Atom        0.023897     -0.006667     -0.017230
     4   Atom        0.014972     -0.007721     -0.007251
     5   Atom       -0.004629      0.030994     -0.026365
     6   Atom       -0.037954     -0.023223      0.061177
     7   Atom        0.003146     -0.001586     -0.001560
     8   Atom        0.003774     -0.002353     -0.001421
     9   Atom        0.005982     -0.002384     -0.003599
    10   Atom        0.002838     -0.008088      0.005249
    11   Atom       -0.003637      0.002861      0.000775
    12   Atom        0.007149     -0.004737     -0.002412
    13   Atom        0.004634     -0.000976     -0.003658
 --------------------------------------------------------
                        XY            XZ            YZ
 --------------------------------------------------------
     1   Atom       -0.738145     -0.040633      0.055862
     2   Atom       -0.001040      0.000168     -0.001147
     3   Atom       -0.018029     -0.016807      0.002004
     4   Atom        0.004584      0.005711      0.000408
     5   Atom        0.020065      0.035402      0.046778
     6   Atom       -0.032210      0.019877     -0.021806
     7   Atom       -0.000232      0.000711      0.000007
     8   Atom       -0.000094     -0.001776      0.000118
     9   Atom       -0.003762     -0.001064      0.000056
    10   Atom       -0.000756     -0.011101      0.003658
    11   Atom        0.008908     -0.009598     -0.014874
    12   Atom        0.003575      0.007207      0.001932
    13   Atom        0.004428      0.000165     -0.000112
 --------------------------------------------------------


 ---------------------------------------------------------------------------------
              Anisotropic Spin Dipole Couplings in Principal Axis System
 ---------------------------------------------------------------------------------

       Atom             a.u.   MegaHertz   Gauss  10(-4) cm-1        Axes

              Baa    -0.5066   -67.976   -24.256   -22.674 -0.5587 -0.4986  0.6628
     1 C(13)  Bbb    -0.4983   -66.872   -23.862   -22.306  0.5343  0.3948  0.7474
              Bcc     1.0049   134.848    48.117    44.980 -0.6343  0.7717  0.0458
 
              Baa    -0.0034    -0.461    -0.164    -0.154  0.0371  0.4010  0.9153
     2 C(13)  Bbb    -0.0005    -0.065    -0.023    -0.022  0.2387  0.8859 -0.3978
              Bcc     0.0039     0.526     0.188     0.175  0.9704 -0.2333  0.0629
 
              Baa    -0.0246    -3.307    -1.180    -1.103  0.4140  0.3202  0.8521
     3 C(13)  Bbb    -0.0124    -1.667    -0.595    -0.556  0.2289  0.8694 -0.4379
              Bcc     0.0371     4.974     1.775     1.659  0.8810 -0.3763 -0.2866
 
              Baa    -0.0093    -1.243    -0.444    -0.415 -0.2877  0.6748  0.6796
     4 C(13)  Bbb    -0.0079    -1.063    -0.379    -0.355  0.0307  0.7157 -0.6977
              Bcc     0.0172     2.306     0.823     0.769  0.9572  0.1799  0.2267
 
              Baa    -0.0620   -33.069   -11.800   -11.031 -0.4051 -0.3396  0.8488
     5 H(1)   Bbb    -0.0115    -6.112    -2.181    -2.039  0.8110 -0.5621  0.1622
              Bcc     0.0734    39.181    13.981    13.070  0.4220  0.7541  0.5032
 
              Baa    -0.0637   -33.968   -12.121   -11.331  0.7867  0.6171 -0.0175
     6 H(1)   Bbb    -0.0098    -5.204    -1.857    -1.736 -0.5649  0.7309  0.3830
              Bcc     0.0734    39.173    13.978    13.067  0.2491 -0.2914  0.9236
 
              Baa    -0.0017    -0.899    -0.321    -0.300 -0.1517 -0.4243  0.8927
     7 H(1)   Bbb    -0.0016    -0.842    -0.300    -0.281 -0.0198  0.9043  0.4264
              Bcc     0.0033     1.740     0.621     0.581  0.9882 -0.0470  0.1456
 
              Baa    -0.0024    -1.266    -0.452    -0.422 -0.0434  0.9784 -0.2021
     8 H(1)   Bbb    -0.0020    -1.042    -0.372    -0.348  0.2930  0.2059  0.9337
              Bcc     0.0043     2.308     0.824     0.770  0.9551 -0.0187 -0.2956
 
              Baa    -0.0041    -2.184    -0.779    -0.728  0.3293  0.7041  0.6291
     9 H(1)   Bbb    -0.0034    -1.827    -0.652    -0.610 -0.1588 -0.6155  0.7720
              Bcc     0.0075     4.011     1.431     1.338  0.9308 -0.3541 -0.0909
 
              Baa    -0.0098    -5.238    -1.869    -1.747 -0.3534  0.8155 -0.4584
    10 H(1)   Bbb    -0.0058    -3.113    -1.111    -1.039  0.6695  0.5627  0.4848
              Bcc     0.0157     8.351     2.980     2.786 -0.6533  0.1356  0.7449
 
              Baa    -0.0133    -7.105    -2.535    -2.370  0.2289  0.5876  0.7761
    11 H(1)   Bbb    -0.0098    -5.227    -1.865    -1.743  0.8688 -0.4829  0.1094
              Bcc     0.0231    12.331     4.400     4.113  0.4391  0.6493 -0.6210
 
              Baa    -0.0063    -3.351    -1.196    -1.118 -0.4686 -0.0200  0.8832
    12 H(1)   Bbb    -0.0057    -3.053    -1.090    -1.019 -0.2175  0.9716 -0.0934
              Bcc     0.0120     6.404     2.285     2.136  0.8562  0.2359  0.4597
 
              Baa    -0.0038    -2.001    -0.714    -0.668 -0.2299  0.4024  0.8861
    13 H(1)   Bbb    -0.0033    -1.771    -0.632    -0.591 -0.4237  0.7783 -0.4634
              Bcc     0.0071     3.773     1.346     1.258  0.8761  0.4820  0.0084
 

 ---------------------------------------------------------------------------------

 No NMR shielding tensors so no spin-rotation constants.
 Leave Link  601 at Tue May  8 09:58:39 2018, MaxMem=  671088640 cpu:      17.7
 (Enter /shared/apps/gaussian/G09_LINUX_LINDA/g09/l701.exe)
 Compute integral first derivatives.
 ... and contract with generalized density number  0.
 Leave Link  701 at Tue May  8 09:58:41 2018, MaxMem=  671088640 cpu:      18.0
 (Enter /shared/apps/gaussian/G09_LINUX_LINDA/g09/l702.exe)
 L702 exits ... SP integral derivatives will be done elsewhere.
 Leave Link  702 at Tue May  8 09:58:41 2018, MaxMem=  671088640 cpu:       0.2
 (Enter /shared/apps/gaussian/G09_LINUX_LINDA/g09/l703.exe)
 Compute integral first derivatives, UseDBF=F ICtDFT=           0.
 Integral derivatives from FoFDir, PRISM(SPDF).
 Calling FoFJK, ICntrl=      2127 FMM=F ISym2X=0 I1Cent= 0 IOpClX= 1 NMat=1 NMatS=1 NMatT=0.
 FoFCou: FMM=F IPFlag=           0 FMFlag=      100000 FMFlg1=         800
         NFxFlg=           0 DoJE=F BraDBF=F KetDBF=F FulRan=T
         Omega=  0.000000  0.000000  1.000000  0.000000  0.000000 ICntrl=    2127 IOpCl=  1
         NMat0=    1 NMatS0=    1 NMatT0=    0 NMatD0=    1 NMtDS0=    0 NMtDT0=    0
         I1Cent=           0 NGrid=           0.
 Symmetry not used in FoFCou.
 Leave Link  703 at Tue May  8 09:58:53 2018, MaxMem=  671088640 cpu:     118.1
 (Enter /shared/apps/gaussian/G09_LINUX_LINDA/g09/l716.exe)
 Dipole        = 2.16331642D-01-6.34378765D-02-7.95751236D-02
 ***** Axes restored to original set *****
 -------------------------------------------------------------------
 Center     Atomic                   Forces (Hartrees/Bohr)
 Number     Number              X              Y              Z
 -------------------------------------------------------------------
      1        6          -0.018290493   -0.012419636   -0.033209123
      2        6          -0.005394933   -0.013108519    0.004673833
      3        6           0.036972934   -0.011287660    0.023393322
      4        6          -0.036262751    0.003912749    0.011444722
      5        1           0.008082077    0.014099620    0.011591118
      6        1           0.009237391   -0.005052671    0.007871457
      7        1           0.002676140   -0.009654927   -0.003199716
      8        1          -0.001028370    0.013663254   -0.013367846
      9        1          -0.010299139    0.009606533    0.002528423
     10        1          -0.000430954    0.011887351    0.007970312
     11        1          -0.003515013   -0.003683163   -0.010400441
     12        1           0.005613285   -0.004643343    0.004895774
     13        1           0.012639825    0.006680412   -0.014191836
 -------------------------------------------------------------------
 Cartesian Forces:  Max     0.036972934 RMS     0.013767674
 Leave Link  716 at Tue May  8 09:58:53 2018, MaxMem=  671088640 cpu:       0.4
 (Enter /shared/apps/gaussian/G09_LINUX_LINDA/g09/l103.exe)

 GradGradGradGradGradGradGradGradGradGradGradGradGradGradGradGradGradGrad
 Berny optimization.
 Internal  Forces:  Max     0.026649475 RMS     0.008780880
 Search for a local minimum.
 Step number   1 out of a maximum of   67
 All quantities printed in internal units (Hartrees-Bohrs-Radians)
 Swaping is turned off.
 Second derivative matrix not updated -- first step.
 ITU=  0
     Eigenvalues ---    0.00432   0.00737   0.00850   0.03130   0.04087
     Eigenvalues ---    0.04280   0.05284   0.05511   0.05568   0.06454
     Eigenvalues ---    0.07564   0.09869   0.11482   0.13116   0.16000
     Eigenvalues ---    0.16000   0.16000   0.16000   0.16000   0.21895
     Eigenvalues ---    0.21948   0.29863   0.31581   0.31600   0.31941
     Eigenvalues ---    0.32148   0.32218   0.32797   0.33055   0.33111
     Eigenvalues ---    0.33699   0.33717   0.34228
 Quadratic step=1.084D+00 exceeds max=3.000D-01 adjusted using Lamda=-7.571D-02.
 Angle between NR and scaled steps=  41.87 degrees.
 Angle between quadratic step and forces=  29.07 degrees.
 Linear search not attempted -- option 19 set.
 Iteration  1 RMS(Cart)=  0.07437749 RMS(Int)=  0.00328079
 Iteration  2 RMS(Cart)=  0.00275453 RMS(Int)=  0.00158218
 Iteration  3 RMS(Cart)=  0.00001148 RMS(Int)=  0.00158214
 Iteration  4 RMS(Cart)=  0.00000007 RMS(Int)=  0.00158214
 Variable       Old X    -DE/DX   Delta X   Delta X   Delta X     New X
                                 (Linear)    (Quad)   (Total)
    R1        2.83873   0.00511   0.00000   0.01287   0.01287   2.85160
    R2        2.09410  -0.01431   0.00000  -0.03545  -0.03545   2.05864
    R3        2.07811  -0.00912   0.00000  -0.02208  -0.02208   2.05603
    R4        2.88237   0.01588   0.00000   0.04243   0.04243   2.92480
    R5        2.07841  -0.00838   0.00000  -0.02031  -0.02031   2.05810
    R6        2.11581  -0.01697   0.00000  -0.04331  -0.04331   2.07250
    R7        2.08857  -0.00942   0.00000  -0.02315  -0.02315   2.06542
    R8        2.82255   0.02665   0.00000   0.06560   0.06560   2.88814
    R9        2.10446  -0.01324   0.00000  -0.03327  -0.03327   2.07119
   R10        2.10953  -0.00986   0.00000  -0.02494  -0.02494   2.08458
   R11        2.06947  -0.00419   0.00000  -0.01003  -0.01003   2.05944
   R12        2.11618  -0.01739   0.00000  -0.04442  -0.04442   2.07176
    A1        1.94376   0.01775   0.00000   0.09291   0.08755   2.03131
    A2        1.99440   0.00889   0.00000   0.05479   0.04946   2.04386
    A3        1.97343  -0.00739   0.00000  -0.00412  -0.01122   1.96221
    A4        1.95475   0.00387   0.00000   0.01200   0.01181   1.96656
    A5        1.83212   0.01219   0.00000   0.05626   0.05523   1.88735
    A6        1.89006   0.00739   0.00000   0.03051   0.02982   1.91988
    A7        1.93698  -0.00821   0.00000  -0.03453  -0.03501   1.90196
    A8        1.98946  -0.00983   0.00000  -0.05003  -0.04995   1.93951
    A9        1.85095  -0.00382   0.00000  -0.00568  -0.00732   1.84363
   A10        1.99537   0.00186   0.00000   0.00882   0.00863   2.00400
   A11        1.88332   0.00208   0.00000   0.00773   0.00773   1.89105
   A12        1.85444   0.00034   0.00000   0.01079   0.01044   1.86488
   A13        1.98620  -0.00556   0.00000  -0.03167  -0.03159   1.95461
   A14        1.88273   0.00312   0.00000   0.02009   0.01987   1.90261
   A15        1.85193  -0.00175   0.00000  -0.01474  -0.01465   1.83728
   A16        1.86494   0.02036   0.00000   0.07685   0.07667   1.94161
   A17        1.90447  -0.00484   0.00000  -0.00898  -0.00758   1.89689
   A18        1.81943  -0.00001   0.00000   0.02553   0.02518   1.84461
   A19        2.00934  -0.01004   0.00000  -0.05037  -0.05104   1.95831
   A20        1.93825  -0.00474   0.00000  -0.01501  -0.01783   1.92043
   A21        1.91669   0.00076   0.00000  -0.01748  -0.01867   1.89802
    D1       -2.45465  -0.00432   0.00000  -0.04958  -0.05091  -2.50556
    D2       -0.22590  -0.00862   0.00000  -0.07878  -0.08019  -0.30608
    D3        1.75412  -0.00951   0.00000  -0.08697  -0.08840   1.66572
    D4       -0.19196   0.00927   0.00000   0.07745   0.07890  -0.11306
    D5        2.03679   0.00497   0.00000   0.04825   0.04963   2.08641
    D6       -2.26638   0.00409   0.00000   0.04006   0.04141  -2.22497
    D7       -2.95452   0.00240   0.00000   0.01434   0.01492  -2.93960
    D8       -0.77162   0.00010   0.00000  -0.00389  -0.00343  -0.77506
    D9        1.27516  -0.00128   0.00000  -0.01497  -0.01555   1.25960
   D10        1.22526   0.00257   0.00000   0.01429   0.01505   1.24030
   D11       -2.87503   0.00027   0.00000  -0.00394  -0.00330  -2.87833
   D12       -0.82825  -0.00111   0.00000  -0.01502  -0.01542  -0.84368
   D13       -0.74602  -0.00202   0.00000  -0.01895  -0.01900  -0.76502
   D14        1.43688  -0.00432   0.00000  -0.03717  -0.03735   1.39953
   D15       -2.79953  -0.00570   0.00000  -0.04825  -0.04947  -2.84900
   D16        1.96187  -0.00436   0.00000  -0.04163  -0.04196   1.91991
   D17       -0.15585  -0.00668   0.00000  -0.05430  -0.05354  -0.20939
   D18       -2.34759   0.00444   0.00000   0.02316   0.02250  -2.32508
   D19       -0.21322  -0.00407   0.00000  -0.03279  -0.03308  -0.24630
   D20       -2.33094  -0.00640   0.00000  -0.04546  -0.04466  -2.37560
   D21        1.76051   0.00472   0.00000   0.03200   0.03139   1.79190
   D22       -2.26296  -0.00068   0.00000  -0.00906  -0.00921  -2.27217
   D23        1.90250  -0.00301   0.00000  -0.02173  -0.02079   1.88171
   D24       -0.28923   0.00812   0.00000   0.05573   0.05525  -0.23398
         Item               Value     Threshold  Converged?
 Maximum Force            0.026649     0.000002     NO 
 RMS     Force            0.008781     0.000001     NO 
 Maximum Displacement     0.260862     0.000006     NO 
 RMS     Displacement     0.074047     0.000004     NO 
 Predicted change in Energy=-1.216842D-02
 GradGradGradGradGradGradGradGradGradGradGradGradGradGradGradGradGradGrad

 Leave Link  103 at Tue May  8 09:58:59 2018, MaxMem=  671088640 cpu:      57.7
 (Enter /shared/apps/gaussian/G09_LINUX_LINDA/g09/l202.exe)
                          Input orientation:                          
 ---------------------------------------------------------------------
 Center     Atomic      Atomic             Coordinates (Angstroms)
 Number     Number       Type             X           Y           Z
 ---------------------------------------------------------------------
      1          6           0        1.950411   -0.063736   -0.369894
      2          6           0       -1.611868    0.106053   -0.319264
      3          6           0        0.740543   -0.497259    0.420906
      4          6           0       -0.376830    0.542047    0.505406
      5          1           0        2.442076   -0.833564   -0.963521
      6          1           0        1.884726    0.886768   -0.895229
      7          1           0       -2.338711    0.907703   -0.442552
      8          1           0       -2.090697   -0.732620    0.200487
      9          1           0       -1.294242   -0.290001   -1.287170
     10          1           0        0.384743   -1.450128    0.012589
     11          1           0        1.091709   -0.731017    1.440170
     12          1           0       -0.053772    1.523208    0.158080
     13          1           0       -0.728089    0.632546    1.539991
 ---------------------------------------------------------------------
                    Distance matrix (angstroms):
                    1          2          3          4          5
     1  C    0.000000
     2  C    3.566683   0.000000
     3  C    1.509003   2.538833   0.000000
     4  C    2.559136   1.547737   1.528339   0.000000
     5  H    1.089386   4.210986   2.219223   3.463565   0.000000
     6  H    1.088003   3.628694   2.226409   2.682396   1.809654
     7  H    4.398357   1.089102   3.493033   2.209368   5.114620
     8  H    4.135613   1.096719   2.849544   2.157567   4.680933
     9  H    3.379403   1.092972   2.664738   2.178825   3.789496
    10  H    2.125958   2.553093   1.096028   2.188978   2.359144
    11  H    2.111627   3.332510   1.103114   2.156637   2.758937
    12  H    2.610345   2.159594   2.186847   1.089807   3.611318
    13  H    3.362564   2.124874   2.164645   1.096329   4.297324
                    6          7          8          9         10
     6  H    0.000000
     7  H    4.247679   0.000000
     8  H    4.430237   1.779233   0.000000
     9  H    3.412366   1.799664   1.744527   0.000000
    10  H    2.921501   3.630940   2.584168   2.419558   0.000000
    11  H    2.949609   4.242385   3.415337   3.650430   1.747830
    12  H    2.296147   2.441424   3.039675   2.629684   3.009019
    13  H    3.580744   2.569104   2.348329   3.027286   2.812273
                   11         12         13
    11  H    0.000000
    12  H    2.835033   0.000000
    13  H    2.276166   1.776981   0.000000
 Stoichiometry    C4H9(2)
 Framework group  C1[X(C4H9)]
 Deg. of freedom    33
 Full point group                 C1      NOp   1
 Largest Abelian subgroup         C1      NOp   1
 Largest concise Abelian subgroup C1      NOp   1
                         Standard orientation:                         
 ---------------------------------------------------------------------
 Center     Atomic      Atomic             Coordinates (Angstroms)
 Number     Number       Type             X           Y           Z
 ---------------------------------------------------------------------
      1          6           0       -1.850112   -0.337280    0.185237
      2          6           0        1.700247   -0.418501   -0.145790
      3          6           0       -0.685017    0.406822   -0.419705
      4          6           0        0.569361    0.452689    0.452219
      5          1           0       -2.466118   -0.914398   -0.503407
      6          1           0       -1.670965   -0.862018    1.121349
      7          1           0        2.527335   -0.566444    0.547162
      8          1           0        2.075349    0.080749   -1.047366
      9          1           0        1.295233   -1.375053   -0.485731
     10          1           0       -0.481418   -0.017103   -1.409711
     11          1           0       -1.028175    1.437764   -0.610130
     12          1           0        0.374638    0.120358    1.471689
     13          1           0        0.967239    1.473765    0.484381
 ---------------------------------------------------------------------
 Rotational constants (GHZ):     17.3009290      4.1347837      4.0407527
 Leave Link  202 at Tue May  8 09:59:00 2018, MaxMem=  671088640 cpu:       0.8
 (Enter /shared/apps/gaussian/G09_LINUX_LINDA/g09/l301.exe)
 Standard basis: 6-311+G(2df,2p) (5D, 7F)
 Ernie: Thresh=  0.10000D-02 Tol=  0.10000D-05 Strict=F.
 There are   217 symmetry adapted basis functions of A   symmetry.
 Integral buffers will be    131072 words long.
 Raffenetti 2 integral format.
 Two-electron integral symmetry is turned on.
   217 basis functions,   307 primitive gaussians,   237 cartesian basis functions
    17 alpha electrons       16 beta electrons
       nuclear repulsion energy       123.5180836555 Hartrees.
 IExCor= 4336 DFT=T Ex+Corr=M062X ExCW=0 ScaHFX=  0.540000
 ScaDFX=  1.000000  1.000000  1.000000  1.000000 ScalE2=  1.000000  1.000000
 IRadAn=      0 IRanWt=     -1 IRanGd=            0 ICorTp=0
 NAtoms=   13 NActive=   13 NUniq=   13 SFac= 1.00D+00 NAtFMM=   50 NAOKFM=F Big=F
 Leave Link  301 at Tue May  8 09:59:00 2018, MaxMem=  671088640 cpu:       1.0
 (Enter /shared/apps/gaussian/G09_LINUX_LINDA/g09/l302.exe)
 NPDir=0 NMtPBC=     1 NCelOv=     1 NCel=       1 NClECP=     1 NCelD=      1
         NCelK=      1 NCelE2=     1 NClLst=     1 CellRange=     0.0.
 One-electron integrals computed using PRISM.
 NBasis=   217 RedAO= T  NBF=   217
 NBsUse=   217 1.00D-06 NBFU=   217
 Precomputing XC quadrature grid using
 IXCGrd= 2 IRadAn=           0 IRanWt=          -1 IRanGd=           0 AccXCQ= 0.00D+00.
 NRdTot=     837 NPtTot=      105696 NUsed=      111737 NTot=      111769
 NSgBfM=   237   237   237   237   237 NAtAll=    13    13.
 Leave Link  302 at Tue May  8 09:59:01 2018, MaxMem=  671088640 cpu:      12.3
 (Enter /shared/apps/gaussian/G09_LINUX_LINDA/g09/l303.exe)
 DipDrv:  MaxL=1.
 Leave Link  303 at Tue May  8 09:59:01 2018, MaxMem=  671088640 cpu:       2.7
 (Enter /shared/apps/gaussian/G09_LINUX_LINDA/g09/l401.exe)
 Initial guess read from the read-write file.
 B after Tr=     0.000000    0.000000    0.000000
         Rot=    1.000000    0.000000    0.000000    0.000000 Ang=   0.00 deg.
 Guess basis will be translated and rotated to current coordinates.
 Initial guess orbital symmetries:
 Alpha Orbitals:
       Occupied  (A) (A) (A) (A) (A) (A) (A) (A) (A) (A) (A) (A)
                 (A) (A) (A) (A) (A)
       Virtual   (A) (A) (A) (A) (A) (A) (A) (A) (A) (A) (A) (A)
                 (A) (A) (A) (A) (A) (A) (A) (A) (A) (A) (A) (A)
                 (A) (A) (A) (A) (A) (A) (A) (A) (A) (A) (A) (A)
                 (A) (A) (A) (A) (A) (A) (A) (A) (A) (A) (A) (A)
                 (A) (A) (A) (A) (A) (A) (A) (A) (A) (A) (A) (A)
                 (A) (A) (A) (A) (A) (A) (A) (A) (A) (A) (A) (A)
                 (A) (A) (A) (A) (A) (A) (A) (A) (A) (A) (A) (A)
                 (A) (A) (A) (A) (A) (A) (A) (A) (A) (A) (A) (A)
                 (A) (A) (A) (A) (A) (A) (A) (A) (A) (A) (A) (A)
                 (A) (A) (A) (A) (A) (A) (A) (A) (A) (A) (A) (A)
                 (A) (A) (A) (A) (A) (A) (A) (A) (A) (A) (A) (A)
                 (A) (A) (A) (A) (A) (A) (A) (A) (A) (A) (A) (A)
                 (A) (A) (A) (A) (A) (A) (A) (A) (A) (A) (A) (A)
                 (A) (A) (A) (A) (A) (A) (A) (A) (A) (A) (A) (A)
                 (A) (A) (A) (A) (A) (A) (A) (A) (A) (A) (A) (A)
                 (A) (A) (A) (A) (A) (A) (A) (A) (A) (A) (A) (A)
                 (A) (A) (A) (A) (A) (A) (A) (A)
 Beta  Orbitals:
       Occupied  (A) (A) (A) (A) (A) (A) (A) (A) (A) (A) (A) (A)
                 (A) (A) (A) (A)
       Virtual   (A) (A) (A) (A) (A) (A) (A) (A) (A) (A) (A) (A)
                 (A) (A) (A) (A) (A) (A) (A) (A) (A) (A) (A) (A)
                 (A) (A) (A) (A) (A) (A) (A) (A) (A) (A) (A) (A)
                 (A) (A) (A) (A) (A) (A) (A) (A) (A) (A) (A) (A)
                 (A) (A) (A) (A) (A) (A) (A) (A) (A) (A) (A) (A)
                 (A) (A) (A) (A) (A) (A) (A) (A) (A) (A) (A) (A)
                 (A) (A) (A) (A) (A) (A) (A) (A) (A) (A) (A) (A)
                 (A) (A) (A) (A) (A) (A) (A) (A) (A) (A) (A) (A)
                 (A) (A) (A) (A) (A) (A) (A) (A) (A) (A) (A) (A)
                 (A) (A) (A) (A) (A) (A) (A) (A) (A) (A) (A) (A)
                 (A) (A) (A) (A) (A) (A) (A) (A) (A) (A) (A) (A)
                 (A) (A) (A) (A) (A) (A) (A) (A) (A) (A) (A) (A)
                 (A) (A) (A) (A) (A) (A) (A) (A) (A) (A) (A) (A)
                 (A) (A) (A) (A) (A) (A) (A) (A) (A) (A) (A) (A)
                 (A) (A) (A) (A) (A) (A) (A) (A) (A) (A) (A) (A)
                 (A) (A) (A) (A) (A) (A) (A) (A) (A) (A) (A) (A)
                 (A) (A) (A) (A) (A) (A) (A) (A) (A)
 The electronic state of the initial guess is 2-A.
 Initial guess <Sx>= 0.0000 <Sy>= 0.0000 <Sz>= 0.5000 <S**2>= 0.7551 S= 0.5025
 Generating alternative initial guess.
 Harris functional with IExCor= 1009 diagonalized for initial guess.
 ExpMin= 4.38D-02 ExpMax= 4.56D+03 ExpMxC= 6.82D+02 IAcc=2 IRadAn=         0 AccDes= 0.00D+00
 HarFok:  IExCor= 1009 AccDes= 0.00D+00 IRadAn=         0 IDoV= 1
 ScaDFX=  1.000000  1.000000  1.000000  1.000000
 FoFCou: FMM=F IPFlag=           0 FMFlag=      100000 FMFlg1=           0
         NFxFlg=           0 DoJE=T BraDBF=F KetDBF=T FulRan=T
         Omega=  0.000000  0.000000  1.000000  0.000000  0.000000 ICntrl=     500 IOpCl=  0
         NMat0=    1 NMatS0=    1 NMatT0=    0 NMatD0=    1 NMtDS0=    0 NMtDT0=    0
         I1Cent=           4 NGrid=           0.
 Petite list used in FoFCou.
 Harris En= -157.699764880858    
 Leave Link  401 at Tue May  8 09:59:08 2018, MaxMem=  671088640 cpu:      67.2
 (Enter /shared/apps/gaussian/G09_LINUX_LINDA/g09/l502.exe)
 UHF open shell SCF:
 Requested convergence on RMS density matrix=1.00D-08 within 128 cycles.
 Requested convergence on MAX density matrix=1.00D-06.
 Requested convergence on             energy=1.00D-06.
 No special actions if energy rises.
 Using DIIS extrapolation, IDIIS=  1040.
 Integral symmetry usage will be decided dynamically.
       111607 words used for storage of precomputed grid.
 IEnd=      304742 IEndB=      304742 NGot=   671088640 MDV=   670856945
 LenX=   670856945 LenY=   670800335
 Fock matrices will be formed incrementally for  20 cycles.

 Cycle   1  Pass 1  IDiag  1:
 FoFCou: FMM=F IPFlag=           0 FMFlag=      100000 FMFlg1=           0
         NFxFlg=           0 DoJE=F BraDBF=F KetDBF=F FulRan=T
         Omega=  0.000000  0.000000  1.000000  0.000000  0.000000 ICntrl=       0 IOpCl=  1
         NMat0=    1 NMatS0=    1 NMatT0=    0 NMatD0=    1 NMtDS0=    0 NMtDT0=    0
         I1Cent=           0 NGrid=           0.
 Symmetry not used in FoFCou.
 E= -157.659675829513    
 DIIS: error= 1.11D-02 at cycle   1 NSaved=   1.
 NSaved= 1 IEnMin= 1 EnMin= -157.659675829513     IErMin= 1 ErrMin= 1.11D-02
 ErrMax= 1.11D-02 EMaxC= 1.00D-01 BMatC= 1.81D-01 BMatP= 1.81D-01
 IDIUse=3 WtCom= 8.89D-01 WtEn= 1.11D-01
 Coeff-Com:  0.100D+01
 Coeff-En:   0.100D+01
 Coeff:      0.100D+01
 Recover alternate guess density for next cycle.
 RMSDP=2.36D-03 MaxDP=8.24D-02              OVMax= 0.00D+00

 Cycle   2  Pass 1  IDiag  1:
 RMSU=  1.77D-03    CP:  9.80D-01
 E= -157.561453699548     Delta-E=        0.098222129965 Rises=F Damp=F
 Switch densities from cycles 1 and 2 for lowest energy.
 DIIS: error= 2.29D-02 at cycle   2 NSaved=   2.
 NSaved= 2 IEnMin= 1 EnMin= -157.659675829513     IErMin= 1 ErrMin= 1.11D-02
 ErrMax= 2.29D-02 EMaxC= 1.00D+00 BMatC= 7.01D-01 BMatP= 1.81D-01
 IDIUse=1 WtCom= 1.00D+00 WtEn= 0.00D+00
 Coeff-Com:  0.788D+00 0.212D+00
 Coeff:      0.788D+00 0.212D+00
 Gap=     0.304 Goal=   None    Shift=    0.000
 Gap=     0.386 Goal=   None    Shift=    0.000
 RMSDP=7.33D-03 MaxDP=3.29D-01 DE= 9.82D-02 OVMax= 1.08D-01

 Cycle   3  Pass 1  IDiag  1:
 RMSU=  6.33D-04    CP:  9.73D-01  2.17D-01
 E= -157.723813330854     Delta-E=       -0.162359631306 Rises=F Damp=F
 DIIS: error= 5.29D-03 at cycle   3 NSaved=   3.
 NSaved= 3 IEnMin= 3 EnMin= -157.723813330854     IErMin= 3 ErrMin= 5.29D-03
 ErrMax= 5.29D-03 EMaxC= 1.00D+00 BMatC= 2.50D-02 BMatP= 1.81D-01
 IDIUse=1 WtCom= 1.00D+00 WtEn= 0.00D+00
 Coeff-Com: -0.611D-01 0.147D+00 0.914D+00
 Coeff:     -0.611D-01 0.147D+00 0.914D+00
[...]
     31  0.693387D-04 -0.126394D-03 -0.611540D-02 -0.240497D-02 -0.789924D-02
     32 -0.680438D-04 -0.971092D-04 -0.184076D-01 -0.690750D-02 -0.248086D-01
     33 -0.772315D-04  0.925672D-04  0.621111D-03 -0.270711D-03  0.189705D-02
     34  0.687217D-03  0.147555D-03 -0.416951D-02  0.371734D-02  0.547279D-03
     35  0.119925D-03 -0.258689D-03  0.383302D-02 -0.981084D-03  0.223147D-04
     36 -0.596871D-04  0.865805D-03 -0.973228D-04 -0.570251D-03  0.614813D-03
     37 -0.132880D-02 -0.396242D-02  0.923925D-03  0.954911D-04 -0.212470D-03
     38  0.534961D-03 -0.145712D-02 -0.834069D-03  0.406937D-03 -0.269436D-03
     39 -0.134027D-02 -0.203912D-02  0.108502D-03 -0.363438D-03 -0.103933D-03
               31            32            33            34            35 
     31  0.139835D+00
     32  0.285148D-01  0.565398D-01
     33  0.121171D+00  0.412327D-01  0.217768D+00
     34  0.106406D-02 -0.822765D-03 -0.133966D-03  0.798691D-01
     35  0.142433D-03  0.497853D-03  0.270674D-03  0.796519D-01  0.303686D+00
     36  0.992493D-04  0.302643D-03 -0.164729D-03 -0.692945D-02 -0.269197D-01
     37  0.629914D-03 -0.852107D-03 -0.168809D-03 -0.474035D-02 -0.753457D-03
     38 -0.927070D-03  0.746384D-03  0.255513D-03 -0.132853D-01 -0.221874D-02
     39  0.284524D-03 -0.168296D-03  0.684794D-03  0.118523D-02  0.763645D-03
               36            37            38            39 
     36  0.541066D-01
     37  0.827006D-02  0.106246D+00
     38  0.282696D-01  0.905286D-02  0.518017D-01
     39 -0.279296D-02 -0.106475D+00 -0.217311D-01  0.280903D+00
 Leave Link  716 at Tue May  8 10:53:56 2018, MaxMem=  671088640 cpu:       6.4
 (Enter /shared/apps/gaussian/G09_LINUX_LINDA/g09/l103.exe)

 GradGradGradGradGradGradGradGradGradGradGradGradGradGradGradGradGradGrad
 Berny optimization.
 Red2BG is reusing G-inverse.
 Internal  Forces:  Max     0.000000045 RMS     0.000000014
 Search for a local minimum.
 Step number   1 out of a maximum of    2
 All quantities printed in internal units (Hartrees-Bohrs-Radians)
 Swaping is turned off.
 Second derivative matrix not updated -- analytic derivatives used.
 ITU=  0
     Eigenvalues ---    0.00144   0.00202   0.00361   0.00700   0.03488
     Eigenvalues ---    0.03875   0.04101   0.04261   0.04512   0.04539
     Eigenvalues ---    0.06868   0.07633   0.09961   0.10090   0.10610
     Eigenvalues ---    0.12053   0.12199   0.13704   0.15632   0.20378
     Eigenvalues ---    0.21803   0.28952   0.30732   0.31190   0.32701
     Eigenvalues ---    0.33009   0.33660   0.33767   0.33860   0.34557
     Eigenvalues ---    0.34725   0.36321   0.36724
 Angle between quadratic step and forces=  52.40 degrees.
 Linear search not attempted -- option 19 set.
 Iteration  1 RMS(Cart)=  0.00000549 RMS(Int)=  0.00000000
 Iteration  2 RMS(Cart)=  0.00000000 RMS(Int)=  0.00000000
 Variable       Old X    -DE/DX   Delta X   Delta X   Delta X     New X
                                 (Linear)    (Quad)   (Total)
    R1        2.80950   0.00000   0.00000   0.00000   0.00000   2.80950
    R2        2.03926   0.00000   0.00000   0.00000   0.00000   2.03926
    R3        2.04352   0.00000   0.00000   0.00000   0.00000   2.04352
    R4        2.88082   0.00000   0.00000   0.00000   0.00000   2.88082
    R5        2.05872   0.00000   0.00000   0.00000   0.00000   2.05872
    R6        2.06241   0.00000   0.00000   0.00000   0.00000   2.06241
    R7        2.06071   0.00000   0.00000   0.00000   0.00000   2.06071
    R8        2.89397   0.00000   0.00000   0.00000   0.00000   2.89397
    R9        2.06644   0.00000   0.00000   0.00000   0.00000   2.06644
   R10        2.07678   0.00000   0.00000   0.00000   0.00000   2.07678
   R11        2.06599   0.00000   0.00000   0.00000   0.00000   2.06599
   R12        2.06253   0.00000   0.00000   0.00000   0.00000   2.06253
    A1        2.12146   0.00000   0.00000   0.00000   0.00000   2.12147
    A2        2.09212   0.00000   0.00000   0.00000   0.00000   2.09212
    A3        2.05464   0.00000   0.00000   0.00000   0.00000   2.05464
    A4        1.94628   0.00000   0.00000   0.00000   0.00000   1.94628
    A5        1.93064   0.00000   0.00000   0.00000   0.00000   1.93064
    A6        1.93588   0.00000   0.00000   0.00000   0.00000   1.93588
    A7        1.88389   0.00000   0.00000   0.00000   0.00000   1.88389
    A8        1.88734   0.00000   0.00000   0.00000   0.00000   1.88734
    A9        1.87742   0.00000   0.00000   0.00000   0.00000   1.87742
   A10        1.97168   0.00000   0.00000   0.00000   0.00000   1.97168
   A11        1.91907   0.00000   0.00000   0.00000   0.00000   1.91907
   A12        1.91708   0.00000   0.00000   0.00000   0.00000   1.91708
   A13        1.91060   0.00000   0.00000   0.00000   0.00000   1.91060
   A14        1.89643   0.00000   0.00000   0.00000   0.00000   1.89643
   A15        1.84453   0.00000   0.00000   0.00000   0.00000   1.84453
   A16        1.96238   0.00000   0.00000   0.00000   0.00000   1.96238
   A17        1.91626   0.00000   0.00000   0.00000   0.00000   1.91626
   A18        1.91561   0.00000   0.00000   0.00000   0.00000   1.91561
   A19        1.89956   0.00000   0.00000   0.00000   0.00000   1.89956
   A20        1.90723   0.00000   0.00000   0.00000   0.00000   1.90723
   A21        1.85991   0.00000   0.00000   0.00000   0.00000   1.85991
    D1       -2.63325   0.00000   0.00000   0.00002   0.00002  -2.63323
    D2       -0.49319   0.00000   0.00000   0.00002   0.00002  -0.49318
    D3        1.52958   0.00000   0.00000   0.00002   0.00002   1.52960
    D4        0.69758   0.00000   0.00000   0.00002   0.00002   0.69760
    D5        2.83763   0.00000   0.00000   0.00002   0.00002   2.83765
    D6       -1.42278   0.00000   0.00000   0.00002   0.00002  -1.42276
    D7        3.13638   0.00000   0.00000   0.00000   0.00000   3.13638
    D8       -1.02934   0.00000   0.00000   0.00000   0.00000  -1.02934
    D9        1.00958   0.00000   0.00000   0.00000   0.00000   1.00958
   D10        1.03965   0.00000   0.00000   0.00000   0.00000   1.03965
   D11       -3.12607   0.00000   0.00000   0.00000   0.00000  -3.12607
   D12       -1.08715   0.00000   0.00000   0.00000   0.00000  -1.08715
   D13       -1.04215   0.00000   0.00000   0.00000   0.00000  -1.04215
   D14        1.07532   0.00000   0.00000   0.00000   0.00000   1.07532
   D15        3.11424   0.00000   0.00000   0.00000   0.00000   3.11424
   D16        1.13420   0.00000   0.00000   0.00000   0.00000   1.13420
   D17       -0.99278   0.00000   0.00000   0.00000   0.00000  -0.99278
   D18       -3.01744   0.00000   0.00000   0.00000   0.00000  -3.01744
   D19       -1.01057   0.00000   0.00000   0.00000   0.00000  -1.01057
   D20       -3.13755   0.00000   0.00000   0.00000   0.00000  -3.13755
   D21        1.12097   0.00000   0.00000   0.00000   0.00000   1.12098
   D22       -3.01701   0.00000   0.00000   0.00000   0.00000  -3.01700
   D23        1.13920   0.00000   0.00000   0.00000   0.00000   1.13920
   D24       -0.88546   0.00000   0.00000   0.00000   0.00000  -0.88546
         Item               Value     Threshold  Converged?
 Maximum Force            0.000000     0.000002     YES
 RMS     Force            0.000000     0.000001     YES
 Maximum Displacement     0.000025     0.000006     NO 
 RMS     Displacement     0.000005     0.000004     NO 
 Predicted change in Energy=-1.343999D-12
 GradGradGradGradGradGradGradGradGradGradGradGradGradGradGradGradGradGrad

 Leave Link  103 at Tue May  8 10:53:59 2018, MaxMem=  671088640 cpu:      30.2
 (Enter /shared/apps/gaussian/G09_LINUX_LINDA/g09/l9999.exe)

 Test job not archived.
 1\1\GINC-COMPUTE-3-045\Freq\UM062X\6-311+G(2df,2p)\C4H9(2)\ROOT\08-May
 -2018\0\\#P Geom=AllCheck Guess=TCheck SCRF=Check Test GenChk UM062X/6
 -311+G(2df,2p) Freq\\Gaussian input prepared by ASE\\0,2\C,1.574595302
 6,-0.2610943835,-0.6746480671\C,-1.4680570948,0.1543099854,-0.44629628
 77\C,0.7831844948,-0.4341686637,0.5719686701\C,-0.4428356076,0.4814461
 599,0.6334731283\H,2.1464418905,-1.0726007689,-1.0976977048\H,1.729573
 8124,0.7289432524,-1.0811013327\H,-2.3355155762,0.8105724122,-0.385544
 2671\H,-1.8173477758,-0.8747375331,-0.3454664834\H,-1.0327887783,0.258
 2158847,-1.4407253951\H,0.4654606712,-1.4758363115,0.670704238\H,1.416
 7619431,-0.2326090637,1.4470233075\H,-0.1141215556,1.518959053,0.52971
 66224\H,-0.9053517263,0.3985999767,1.6185935718\\Version=EM64L-G09RevB
 .01\State=2-A\HF=-157.7437388\S2=0.7552\S2-1=0.\S2A=0.750021\RMSD=2.31
 1e-09\RMSF=8.730e-06\ZeroPoint=0.1175296\Thermal=0.1234388\Dipole=-0.0
 200877,0.008371,0.1287838\DipoleDeriv=-0.2226516,-0.0534083,-0.1587683
 ,-0.0514806,0.0701714,-0.0379314,-0.2175111,-0.0458044,-0.0689075,0.00
 30037,0.0097149,-0.0457288,0.0256215,0.0690871,-0.0136753,-0.0409305,-
 0.0115418,0.0142764,0.1053666,0.0426893,-0.0073804,0.0436394,0.0529137
 ,-0.0099304,0.0279184,0.0164802,0.0410681,0.1189592,0.0147217,0.007334
 1,-0.0005939,0.1009385,0.0166871,0.0112396,-0.0089713,0.1008709,0.0442
 516,0.053228,0.089695,0.0713241,-0.0132444,-0.0251749,0.1035282,-0.009
 9688,0.0465844,0.0903569,0.0144857,0.0571564,-0.0159293,-0.0658079,0.0
 595386,0.0738269,0.0256407,0.0377649,-0.1031267,0.0874223,-0.0234194,0
 .1089277,-0.003926,-0.0055851,-0.0032948,-0.0154578,0.0587262,0.031979
 5,-0.0342917,-0.0201743,-0.0852542,-0.1181655,-0.002169,-0.0040383,0.0
 329872,0.0374905,0.0241894,-0.0210937,0.0779263,-0.0245732,0.0542711,0
 .0102751,0.037938,0.0019357,-0.0928179,0.005832,-0.0614387,0.0447,-0.0
 237084,-0.1230015,0.03116,0.0287014,0.0059584,0.0404525,-0.0483845,0.0
 014822,-0.0679328,-0.009482,0.0640555,-0.0346937,-0.059132,-0.0094549,
 -0.114273,-0.0144149,-0.0698718,-0.0217473,-0.0409717,-0.13835,-0.0060
 982,-0.0188444,0.0285829,0.0387179,-0.0353612,0.0163603,0.0683398,0.00
 24806,0.051058,0.0175971,0.0605986,-0.0103861,-0.1399533\Polar=53.6624
 651,-1.8287242,45.8991078,-0.9664703,0.4167595,49.2400263\PG=C01 [X(C4
 H9)]\NImag=0\\0.25638572,-0.09405283,0.61263850,-0.23037104,-0.0458634
 5,0.37771621,-0.00061409,-0.00012572,-0.00167340,0.53507997,0.00030530
 ,0.00015018,0.00121322,-0.01964683,0.56632927,-0.00030156,-0.00054904,
 0.00092594,-0.04415658,-0.01398762,0.52090288,-0.09883993,-0.00488046,
 0.08845800,-0.02466504,0.01531666,-0.00254450,0.47071081,-0.00489013,-
 0.08941189,0.02242586,-0.00387954,0.00426888,0.00253826,0.03985530,0.5
 5238951,0.08571655,0.02154461,-0.17701230,-0.02187537,0.01561022,0.001
 34824,0.00690639,-0.00754492,0.49709783,-0.01778998,0.01200908,0.00921
 063,-0.13166530,-0.02102398,-0.05683197,-0.14360588,0.05220480,0.00287
 140,0.48282241,0.00119303,0.00245490,-0.00556176,-0.01850732,-0.086450
 54,-0.02028547,0.04899479,-0.12182257,-0.00031567,0.04000516,0.5522973
 3,0.02439580,-0.02153904,-0.00692970,-0.05583633,-0.02186089,-0.143698
 92,0.00616365,0.00094760,-0.07346921,-0.04595493,-0.01514928,0.5544685
 0,-0.10966048,0.12710859,0.08249252,0.00016806,0.00006475,0.00022418,-
 0.00303550,0.00883912,0.00221513,-0.00139223,-0.00008887,0.00322063,0.
 11060747,0.12373245,-0.22389158,-0.08212676,-0.00006314,0.00007232,-0.
 00016389,-0.00419512,0.00632850,0.00411000,-0.00071189,0.00030597,0.00
 097391,-0.13244329,0.22848099,0.07943929,-0.07869867,-0.08239291,-0.00
 017162,-0.00015429,-0.00006498,0.01223567,-0.01939050,-0.00199137,0.00
 016073,0.00215501,-0.00430062,-0.08598243,0.08774864,0.08146884,-0.032
 37576,-0.03325452,0.03766336,-0.00005859,0.00009084,0.00011028,-0.0008
 8945,-0.01206718,0.00357714,0.00133769,-0.00194312,-0.00058820,0.00489
 434,0.01387038,-0.00584001,0.02839106,-0.02915530,-0.29969508,0.104145
 13,-0.00011340,0.00001718,0.00028557,0.00013133,-0.00023325,-0.0013231
 4,0.00063168,0.00114206,0.00000858,-0.00498092,-0.01313959,0.00837516,
 0.03424941,0.31078156,0.03633149,0.09961934,-0.07797160,0.00022025,-0.
 00020565,0.00011739,0.00322605,0.02400031,-0.00442543,-0.00111493,0.00
 061723,0.00111588,-0.00173103,-0.01032631,0.00665813,-0.03859790,-0.11
 189288,0.07811634,0.00022945,0.00001432,-0.00064883,-0.21374449,0.1276
 5061,0.01392460,-0.00193921,-0.00230946,-0.00391427,-0.01608234,0.0131
 8627,0.00307080,-0.00002470,-0.00000038,0.00008141,0.00000242,-0.00000
 007,0.00006983,0.23199661,-0.00002948,0.00005367,-0.00001462,0.1283996
 5,-0.14610341,-0.01014700,-0.00102898,0.00005394,-0.00104937,-0.008146
 33,0.00518436,0.00098346,-0.00004037,-0.00001128,0.00001828,0.00003034
 ,0.00001615,-0.00000843,-0.14018229,0.15486854,0.00081521,0.00012251,-
 0.00011053,0.01482109,-0.01075504,-0.04770346,-0.00297468,-0.00192523,
 -0.00349460,-0.01932924,0.01634622,0.00188335,-0.00008002,0.00000306,0
 .00009390,-0.00018110,-0.00013014,0.00002115,-0.01288244,0.01223510,0.
 04952233,0.00000587,0.00021117,0.00031587,-0.07308906,-0.07732058,0.00
 979066,0.00118267,-0.00149583,0.00079751,-0.00883767,-0.02163165,0.002
 03152,-0.00008635,0.00004739,-0.00000970,0.00015135,0.00007085,-0.0001
 4423,0.00948428,0.02478792,-0.00327556,0.07763706,-0.00034827,-0.00010
 834,-0.00003708,-0.07754207,-0.28178657,0.02608661,0.00076561,0.001196
 97,0.00029007,-0.00229957,-0.00727485,0.00008709,-0.00006306,0.0000209
 0,0.00001914,0.00004996,0.00001788,-0.00004688,-0.00658699,-0.01751375
 ,0.00246965,0.08713052,0.30563149,-0.00005708,0.00012118,-0.00011039,0
 .00985934,0.02667193,-0.04982330,0.00117779,-0.00051037,0.00081952,-0.
 00904598,-0.02458057,0.00202712,0.00004186,-0.00002596,0.00005761,-0.0
 0000623,-0.00007155,-0.00005622,-0.00083880,-0.00265115,-0.00094966,-0
 .00659632,-0.02729082,0.05238023,-0.00141666,0.00035279,-0.00014632,-0
 .09095484,-0.01077148,0.09928393,0.00151303,0.00023738,0.00058322,0.01
 033182,0.00276606,-0.02218461,-0.00008585,-0.00018100,0.00002852,-0.00
 046397,-0.00016995,-0.00007518,-0.01022631,-0.00416847,0.02276050,-0.0
 0488159,-0.00019011,0.00808750,0.09811253,0.00009776,0.00011571,-0.000
 20580,-0.01069213,-0.05017037,0.02464483,-0.00007797,0.00002340,0.0008
 5206,0.00355411,0.00032236,-0.00821429,0.00008960,-0.00010507,0.000123
 63,-0.00010256,-0.00004680,0.00003332,0.00756474,0.00200461,-0.0191794
 7,-0.01280163,-0.00225435,0.02878470,0.01300222,0.04956322,0.00072792,
 0.00043114,0.00022806,0.09807662,0.02470984,-0.26282532,0.00091348,-0.
 00009174,0.00063111,0.00948834,0.00224039,-0.02255624,-0.00010833,-0.0
 0003522,0.00016604,-0.00018173,-0.00021462,0.00010428,0.00033287,-0.00
 016223,-0.00073911,0.00071253,0.00026630,-0.00217812,-0.10581369,-0.02
 540523,0.28829060,-0.00401920,-0.01641624,0.00237884,0.00210899,0.0007
 0037,0.00066536,-0.07125720,-0.07297981,0.00716240,0.00704498,0.026710
 80,-0.00279482,0.00030700,0.00022831,-0.00058147,-0.00113516,0.0003820
 8,0.00231293,0.00020326,-0.00018819,0.00018436,-0.00018654,-0.00065398
 ,0.00005138,-0.00006492,-0.00006190,-0.00020674,0.07635977,-0.00105375
 ,-0.00274613,0.00178725,-0.00127501,0.00121382,-0.00032523,-0.07205340
 ,-0.27880326,0.01967446,-0.00481254,-0.02026058,0.00116631,0.00037836,
 0.00096469,0.00062796,-0.00109918,0.00105834,-0.00033532,0.00001191,0.
 00041563,-0.00020356,0.00074533,0.00035184,0.00058670,0.00006322,-0.00
 003954,0.00007428,0.07768721,0.30532684,0.00815361,0.02953129,-0.00683
 938,0.00033578,0.00086789,-0.00013180,0.00702482,0.01860830,-0.0460572
 7,-0.00066770,-0.00175465,-0.00046484,-0.00082067,-0.00084226,0.001064
 22,0.00346178,0.00062464,-0.00371293,0.00001677,-0.00018425,-0.0001048
 7,-0.00016551,0.00000979,0.00017627,0.00003005,0.00004345,-0.00004055,
 -0.00980451,-0.02184845,0.05370323,0.00966197,0.00362694,0.01369966,-0
 .00380263,0.00467580,0.00149899,-0.12178689,-0.02807850,-0.10528357,-0
 .01782312,-0.00535997,-0.02143364,-0.00100138,0.00003780,-0.00045961,-
 0.00007150,-0.00020500,-0.00040614,-0.00114240,-0.00018412,-0.00150429
 ,0.00037521,0.00009251,0.00035932,0.00017688,0.00006934,-0.00012639,-0
 .00611540,-0.00240497,-0.00789924,0.13983529,0.00303511,0.00175285,0.0
 0268629,0.00253696,-0.00235482,-0.00078706,-0.02942943,-0.05377838,-0.
 03520327,0.01446393,0.00288589,0.01636155,0.00060426,0.00015849,0.0002
 3603,-0.00059255,-0.00021200,-0.00039046,0.00089266,0.00047935,0.00062
 051,0.00024419,0.00026010,0.00001511,-0.00018745,-0.00006804,-0.000097
 11,-0.01840761,-0.00690750,-0.02480864,0.02851480,0.05653983,-0.004442
 59,-0.00320741,-0.02867897,0.00036092,0.00009800,0.00109451,-0.1199015
 5,-0.03844418,-0.19304878,0.00082255,-0.00019745,0.00137158,0.00053219
 ,0.00037980,-0.00092153,0.00070317,0.00015720,-0.00004025,0.00012922,-
 0.00016631,-0.00003328,0.00000236,-0.00003058,-0.00002141,0.00030425,-
 0.00007723,0.00009257,0.00062111,-0.00027071,0.00189705,0.12117114,0.0
 4123269,0.21776844,0.00149228,0.00035040,-0.00127950,-0.00837560,-0.02
 225010,0.00178075,0.00632747,0.02813170,-0.00218114,-0.07035728,-0.075
 12509,0.00990144,0.00009608,-0.00015425,-0.00010125,0.00009082,-0.0007
 5230,0.00025059,0.00031558,0.00029210,0.00078788,-0.00253912,-0.000440
 83,-0.00397541,0.00092648,0.00068722,0.00014755,-0.00416951,0.00371734
 ,0.00054728,0.00106406,-0.00082276,-0.00013397,0.07986909,-0.00111018,
 0.00113779,0.00106160,-0.00230379,-0.00564377,0.00017431,-0.00439664,-
 0.02146848,0.00212619,-0.07469416,-0.27741231,0.02489761,-0.00000835,0
 .00040618,-0.00016085,0.00048254,0.00015500,-0.00081497,-0.00031927,0.
 00046673,-0.00019310,-0.00066260,0.00125529,-0.00096908,0.00013855,0.0
 0011992,-0.00025869,0.00383302,-0.00098108,0.00002231,0.00014243,0.000
 49785,0.00027067,0.07965190,0.30368561,-0.00048446,-0.00120752,0.00041
 759,-0.00873342,-0.02437440,0.00185888,0.00006580,-0.00090166,-0.00054
 227,0.00981383,0.02595051,-0.05212775,-0.00005889,0.00015089,-0.000020
 26,0.00008330,0.00010972,0.00002227,0.00072133,0.00064010,0.00092414,-
 0.00374058,-0.00139025,-0.00316210,0.00099057,-0.00005969,0.00086581,-
 0.00009732,-0.00057025,0.00061481,0.00009925,0.00030264,-0.00016473,-0
 .00692945,-0.02691966,0.05410655,-0.00305920,0.00505646,-0.00009980,0.
 00961262,0.00220865,-0.02344414,-0.01371488,-0.00356784,0.02342460,-0.
 09398309,-0.01020009,0.10000868,-0.00078645,-0.00016727,0.00120048,0.0
 0012673,-0.00008840,-0.00034171,0.00092785,0.00045822,0.00085828,0.000
 78389,0.00008628,0.00094263,-0.00296659,-0.00132880,-0.00396242,0.0009
 2393,0.00009549,-0.00021247,0.00062991,-0.00085211,-0.00016881,-0.0047
 4035,-0.00075346,0.00827006,0.10624563,0.00227629,-0.00245059,0.000490
 13,0.00321234,0.00045784,-0.00748427,0.01099831,0.00125662,-0.01877124
 ,-0.01118029,-0.05137201,0.02133738,0.00054018,0.00040947,-0.00089952,
 0.00028564,0.00013855,-0.00024931,0.00007795,0.00008546,0.00058949,0.0
 0067492,0.00020339,-0.00008012,-0.00089175,0.00053496,-0.00145712,-0.0
 0083407,0.00040694,-0.00026944,-0.00092707,0.00074638,0.00025551,-0.01
 328531,-0.00221874,0.02826958,0.00905286,0.05180174,0.00007685,-0.0003
 0494,0.00075798,0.00877272,0.00216680,-0.02200006,-0.00075092,0.000288
 27,0.00014454,0.10057727,0.02053548,-0.25731914,0.00005486,0.00015411,
 0.00018293,-0.00020385,-0.00007366,0.00005100,-0.00006250,0.00050642,0
 .00069065,0.00028144,-0.00043305,0.00084045,-0.00384876,-0.00134027,-0
 .00203912,0.00010850,-0.00036344,-0.00010393,0.00028452,-0.00016830,0.
 00068479,0.00118523,0.00076365,-0.00279296,-0.10647537,-0.02173107,0.2
 8090289\\0.00000462,0.00001499,0.00000498,0.00000035,-0.00001080,-0.00
 000490,0.00000149,0.00000474,0.00000156,-0.00000631,-0.00000557,-0.000
 00017,0.00001290,0.00002103,0.00000467,-0.00000210,0.00001753,0.000008
 47,-0.00000528,-0.00001813,-0.00000612,0.00000849,-0.00001396,-0.00000
 927,0.00000314,-0.00000422,-0.00000301,0.00000974,0.00000185,-0.000002
 71,-0.00000337,0.00000737,0.00000449,-0.00001448,-0.00000251,0.0000041
 3,-0.00000921,-0.00001232,-0.00000213\\\@


 YOU SHOULDN'T LET PEOPLE DRIVE YOU CRAZY
 WHEN YOU KNOW IT'S WITHIN WALKING DISTANCE.
 Job cpu time:  0 days  1 hours 41 minutes 27.4 seconds.
 File lengths (MBytes):  RWF=    150 Int=      0 D2E=      0 Chk=      5 Scr=      1
 Normal termination of Gaussian 09 at Tue May  8 10:53:59 2018.
