 Entering Gaussian System, Link 0=g09
 Initial command:
 /shared/apps/gaussian/G09_LINUX_LINDA/g09/l1.exe /home/harms.n/Code/AutoTST/Gau-41708.inp -scrdir=/home/harms.n/Code/AutoTST/
 Entering Link 1 = /shared/apps/gaussian/G09_LINUX_LINDA/g09/l1.exe PID=     41709.
  
 Copyright (c) 1988,1990,1992,1993,1995,1998,2003,2009,2010,
            Gaussian, Inc.  All Rights Reserved.
  
 This is part of the Gaussian(R) 09 program.  It is based on
 the Gaussian(R) 03 system (copyright 2003, Gaussian, Inc.),
 the Gaussian(R) 98 system (copyright 1998, Gaussian, Inc.),
 the Gaussian(R) 94 system (copyright 1995, Gaussian, Inc.),
 the Gaussian 92(TM) system (copyright 1992, Gaussian, Inc.),
 the Gaussian 90(TM) system (copyright 1990, Gaussian, Inc.),
 the Gaussian 88(TM) system (copyright 1988, Gaussian, Inc.),
 the Gaussian 86(TM) system (copyright 1986, Carnegie Mellon
 University), and the Gaussian 82(TM) system (copyright 1983,
 Carnegie Mellon University). Gaussian is a federally registered
 trademark of Gaussian, Inc.
  
 This software contains proprietary and confidential information,
 including trade secrets, belonging to Gaussian, Inc.
  
 This software is provided under written license and may be
 used, copied, transmitted, or stored only in accord with that
 written license.
  
 The following legend is applicable only to US Government
 contracts under FAR:
  
                    RESTRICTED RIGHTS LEGEND
  
 Use, reproduction and disclosure by the US Government is
 subject to restrictions as set forth in subparagraphs (a)
 and (c) of the Commercial Computer Software - Restricted
 Rights clause in FAR 52.227-19.
  
 Gaussian, Inc.
 340 Quinnipiac St., Bldg. 40, Wallingford CT 06492
  
  
 ---------------------------------------------------------------
 Warning -- This program may not be used in any manner that
 competes with the business of Gaussian, Inc. or will provide
 assistance to any competitor of Gaussian, Inc.  The licensee
 of this program is prohibited from giving any competitor of
 Gaussian, Inc. access to this program.  By using this program,
 the user acknowledges that Gaussian, Inc. is engaged in the
 business of creating and licensing software in the field of
 computational chemistry and represents and warrants to the
 licensee that it is not a competitor of Gaussian, Inc. and that
 it will not use this program in any manner prohibited above.
 ---------------------------------------------------------------
  

 Cite this work as:
 Gaussian 09, Revision B.01,
 M. J. Frisch, G. W. Trucks, H. B. Schlegel, G. E. Scuseria, 
 M. A. Robb, J. R. Cheeseman, G. Scalmani, V. Barone, B. Mennucci, 
 G. A. Petersson, H. Nakatsuji, M. Caricato, X. Li, H. P. Hratchian, 
 A. F. Izmaylov, J. Bloino, G. Zheng, J. L. Sonnenberg, M. Hada, 
 M. Ehara, K. Toyota, R. Fukuda, J. Hasegawa, M. Ishida, T. Nakajima, 
 Y. Honda, O. Kitao, H. Nakai, T. Vreven, J. A. Montgomery, Jr., 
 J. E. Peralta, F. Ogliaro, M. Bearpark, J. J. Heyd, E. Brothers, 
 K. N. Kudin, V. N. Staroverov, T. Keith, R. Kobayashi, J. Normand, 
 K. Raghavachari, A. Rendell, J. C. Burant, S. S. Iyengar, J. Tomasi, 
 M. Cossi, N. Rega, J. M. Millam, M. Klene, J. E. Knox, J. B. Cross, 
 V. Bakken, C. Adamo, J. Jaramillo, R. Gomperts, R. E. Stratmann, 
 O. Yazyev, A. J. Austin, R. Cammi, C. Pomelli, J. W. Ochterski, 
 R. L. Martin, K. Morokuma, V. G. Zakrzewski, G. A. Voth, 
 P. Salvador, J. J. Dannenberg, S. Dapprich, A. D. Daniels, 
 O. Farkas, J. B. Foresman, J. V. Ortiz, J. Cioslowski, 
 and D. J. Fox, Gaussian, Inc., Wallingford CT, 2010.
 
 ******************************************
 Gaussian 09:  EM64L-G09RevB.01 12-Aug-2010
                 8-May-2018 
 ******************************************
 %nprocshared=20
 Will use up to   20 processors via shared memory.
 %mem=5GB
 ---------------------------------------------------------------
 #p m062x/6-311+g(2df,2p) opt=(verytight,gdiis) freq IOP(2/16=3)
 ---------------------------------------------------------------

 Warning!  Use of Opt=GDIIS is deprecated since it is seldom a good choice.

 1/7=1,14=-1,18=20,19=11,26=3,38=1/1,3;
 2/9=110,12=2,16=3,17=6,18=5,40=1/2;
 3/5=4,6=6,7=214,11=2,16=1,25=1,30=1,71=1,74=-55/1,2,3;
 4//1;
 5/5=2,38=5/2;
 6/7=2,8=2,9=2,10=2,28=1/1;
 7//1,2,3,16;
 1/7=1,14=-1,18=20,19=11/3(2);
 2/9=110,16=3/2;
 99//99;
 2/9=110,16=3/2;
 3/5=4,6=6,7=214,11=2,16=1,25=1,30=1,71=1,74=-55/1,2,3;
 4/5=5,16=3/1;
 5/5=2,38=5/2;
 7//1,2,3,16;
 1/7=1,14=-1,18=20,19=11/3(-5);
 2/9=110,16=3/2;
 6/7=2,8=2,9=2,10=2,19=2,28=1/1;
 99/9=1/99;
 Leave Link    1 at Tue May  8 09:20:48 2018, MaxMem=  671088640 cpu:       1.0
 (Enter /shared/apps/gaussian/G09_LINUX_LINDA/g09/l101.exe)
 ------------------------------
 Gaussian input prepared by ASE
 ------------------------------
 Symbolic Z-matrix:
 Charge =  0 Multiplicity = 1
 C                     1.9045   -0.0614    0.063 
 C                    -1.8388    0.1247    0.2819 
 C                     0.5022   -0.5748   -0.1818 
 C                    -0.5101    0.5216   -0.3339 
 H                     2.2218    0.6862   -0.6862 
 H                     2.5689   -0.9391    0.1273 
 H                     1.8549    0.4845    1.0387 
 H                    -2.5036    1.0193    0.3567 
 H                    -2.3379   -0.6156   -0.3921 
 H                    -1.73     -0.329     1.2784 
 H                     0.2348   -1.1683    0.7285 
 H                     0.4698   -1.3059   -1.0287 
 H                    -0.1611    1.4762    0.1277 
 H                    -0.6753    0.6815   -1.4095 
 
 NAtoms=     14 NQM=     14 NQMF=      0 NMic=      0 NMicF=      0 NTot=     14.
                    Isotopes and Nuclear Properties:
 (Nuclear quadrupole moments (NQMom) in fm**2, nuclear magnetic moments (NMagM)
  in nuclear magnetons)

  Atom         1           2           3           4           5           6           7           8           9          10
 IAtWgt=          12          12          12          12           1           1           1           1           1           1
 AtmWgt=  12.0000000  12.0000000  12.0000000  12.0000000   1.0078250   1.0078250   1.0078250   1.0078250   1.0078250   1.0078250
 NucSpn=           0           0           0           0           1           1           1           1           1           1
 AtZEff=   0.0000000   0.0000000   0.0000000   0.0000000   0.0000000   0.0000000   0.0000000   0.0000000   0.0000000   0.0000000
 NQMom=    0.0000000   0.0000000   0.0000000   0.0000000   0.0000000   0.0000000   0.0000000   0.0000000   0.0000000   0.0000000
 NMagM=    0.0000000   0.0000000   0.0000000   0.0000000   2.7928460   2.7928460   2.7928460   2.7928460   2.7928460   2.7928460

  Atom        11          12          13          14
 IAtWgt=           1           1           1           1
 AtmWgt=   1.0078250   1.0078250   1.0078250   1.0078250
 NucSpn=           1           1           1           1
 AtZEff=   0.0000000   0.0000000   0.0000000   0.0000000
 NQMom=    0.0000000   0.0000000   0.0000000   0.0000000
 NMagM=    2.7928460   2.7928460   2.7928460   2.7928460
 Leave Link  101 at Tue May  8 09:20:48 2018, MaxMem=  671088640 cpu:       1.1
 (Enter /shared/apps/gaussian/G09_LINUX_LINDA/g09/l103.exe)

 GradGradGradGradGradGradGradGradGradGradGradGradGradGradGradGradGradGrad
 Berny optimization.
 Initialization pass.
                           ----------------------------
                           !    Initial Parameters    !
                           ! (Angstroms and Degrees)  !
 --------------------------                            --------------------------
 ! Name  Definition              Value          Derivative Info.                !
 --------------------------------------------------------------------------------
 ! R1    R(1,3)                  1.5133         estimate D2E/DX2                !
 ! R2    R(1,5)                  1.1049         estimate D2E/DX2                !
 ! R3    R(1,6)                  1.1027         estimate D2E/DX2                !
 ! R4    R(1,7)                  1.1191         estimate D2E/DX2                !
 ! R5    R(2,4)                  1.5173         estimate D2E/DX2                !
 ! R6    R(2,8)                  1.1171         estimate D2E/DX2                !
 ! R7    R(2,9)                  1.1187         estimate D2E/DX2                !
 ! R8    R(2,10)                 1.1003         estimate D2E/DX2                !
 ! R9    R(3,4)                  1.5            estimate D2E/DX2                !
 ! R10   R(3,11)                 1.1191         estimate D2E/DX2                !
 ! R11   R(3,12)                 1.1193         estimate D2E/DX2                !
 ! R12   R(4,13)                 1.1163         estimate D2E/DX2                !
 ! R13   R(4,14)                 1.0999         estimate D2E/DX2                !
 ! A1    A(3,1,5)              112.704          estimate D2E/DX2                !
 ! A2    A(3,1,6)              107.3217         estimate D2E/DX2                !
 ! A3    A(3,1,7)              105.3941         estimate D2E/DX2                !
 ! A4    A(5,1,6)              113.895          estimate D2E/DX2                !
 ! A5    A(5,1,7)              105.8927         estimate D2E/DX2                !
 ! A6    A(6,1,7)              111.3539         estimate D2E/DX2                !
 ! A7    A(4,2,8)              109.8063         estimate D2E/DX2                !
 ! A8    A(4,2,9)              108.6194         estimate D2E/DX2                !
 ! A9    A(4,2,10)             112.8818         estimate D2E/DX2                !
 ! A10   A(8,2,9)              107.7459         estimate D2E/DX2                !
 ! A11   A(8,2,10)             109.1728         estimate D2E/DX2                !
 ! A12   A(9,2,10)             108.4756         estimate D2E/DX2                !
 ! A13   A(1,3,4)              113.1915         estimate D2E/DX2                !
 ! A14   A(1,3,11)             105.65           estimate D2E/DX2                !
 ! A15   A(1,3,12)             111.7669         estimate D2E/DX2                !
 ! A16   A(4,3,11)             107.9911         estimate D2E/DX2                !
 ! A17   A(4,3,12)             112.4066         estimate D2E/DX2                !
 ! A18   A(11,3,12)            105.1974         estimate D2E/DX2                !
 ! A19   A(2,4,3)              111.0161         estimate D2E/DX2                !
 ! A20   A(2,4,13)             109.2473         estimate D2E/DX2                !
 ! A21   A(2,4,14)             107.6613         estimate D2E/DX2                !
 ! A22   A(3,4,13)             111.8474         estimate D2E/DX2                !
 ! A23   A(3,4,14)             107.8656         estimate D2E/DX2                !
 ! A24   A(13,4,14)            109.0875         estimate D2E/DX2                !
 ! D1    D(5,1,3,4)            -52.0477         estimate D2E/DX2                !
 ! D2    D(5,1,3,11)          -170.0158         estimate D2E/DX2                !
 ! D3    D(5,1,3,12)            76.093          estimate D2E/DX2                !
 ! D4    D(6,1,3,4)           -178.2355         estimate D2E/DX2                !
 ! D5    D(6,1,3,11)            63.7964         estimate D2E/DX2                !
 ! D6    D(6,1,3,12)           -50.0948         estimate D2E/DX2                !
 ! D7    D(7,1,3,4)             62.9816         estimate D2E/DX2                !
 ! D8    D(7,1,3,11)           -54.9865         estimate D2E/DX2                !
 ! D9    D(7,1,3,12)          -168.8777         estimate D2E/DX2                !
 ! D10   D(8,2,4,3)            167.8812         estimate D2E/DX2                !
 ! D11   D(8,2,4,13)            44.074          estimate D2E/DX2                !
 ! D12   D(8,2,4,14)           -74.2644         estimate D2E/DX2                !
 ! D13   D(9,2,4,3)            -74.5256         estimate D2E/DX2                !
 ! D14   D(9,2,4,13)           161.6672         estimate D2E/DX2                !
 ! D15   D(9,2,4,14)            43.3288         estimate D2E/DX2                !
 ! D16   D(10,2,4,3)            45.8162         estimate D2E/DX2                !
 ! D17   D(10,2,4,13)          -77.991          estimate D2E/DX2                !
 ! D18   D(10,2,4,14)          163.6706         estimate D2E/DX2                !
 ! D19   D(1,3,4,2)           -143.9068         estimate D2E/DX2                !
 ! D20   D(1,3,4,13)           -21.5971         estimate D2E/DX2                !
 ! D21   D(1,3,4,14)            98.363          estimate D2E/DX2                !
 ! D22   D(11,3,4,2)           -27.3111         estimate D2E/DX2                !
 ! D23   D(11,3,4,13)           94.9986         estimate D2E/DX2                !
 ! D24   D(11,3,4,14)         -145.0414         estimate D2E/DX2                !
 ! D25   D(12,3,4,2)            88.2851         estimate D2E/DX2                !
 ! D26   D(12,3,4,13)         -149.4052         estimate D2E/DX2                !
 ! D27   D(12,3,4,14)          -29.4452         estimate D2E/DX2                !
 --------------------------------------------------------------------------------
 Trust Radius=3.00D-01 FncErr=1.00D-07 GrdErr=1.00D-06
 Number of steps in this run=     74 maximum allowed number of steps=    100.
 GradGradGradGradGradGradGradGradGradGradGradGradGradGradGradGradGradGrad

 Leave Link  103 at Tue May  8 09:20:48 2018, MaxMem=  671088640 cpu:       0.2
 (Enter /shared/apps/gaussian/G09_LINUX_LINDA/g09/l202.exe)
                          Input orientation:                          
 ---------------------------------------------------------------------
 Center     Atomic      Atomic             Coordinates (Angstroms)
 Number     Number       Type             X           Y           Z
 ---------------------------------------------------------------------
      1          6           0        1.904500   -0.061400    0.063000
      2          6           0       -1.838800    0.124700    0.281900
      3          6           0        0.502200   -0.574800   -0.181800
      4          6           0       -0.510100    0.521600   -0.333900
      5          1           0        2.221800    0.686200   -0.686200
      6          1           0        2.568900   -0.939100    0.127300
      7          1           0        1.854900    0.484500    1.038700
      8          1           0       -2.503600    1.019300    0.356700
      9          1           0       -2.337900   -0.615600   -0.392100
     10          1           0       -1.730000   -0.329000    1.278400
     11          1           0        0.234800   -1.168300    0.728500
     12          1           0        0.469800   -1.305900   -1.028700
     13          1           0       -0.161100    1.476200    0.127700
     14          1           0       -0.675300    0.681500   -1.409500
 ---------------------------------------------------------------------
                    Distance matrix (angstroms):
                    1          2          3          4          5
     1  C    0.000000
     2  C    3.754310   0.000000
     3  C    1.513259   2.486885   0.000000
     4  C    2.515494   1.517295   1.499993   0.000000
     5  H    1.104937   4.212003   2.191247   2.759436   0.000000
     6  H    1.102687   4.536892   2.121204   3.438981   1.850368
     7  H    1.119132   3.787561   2.107495   2.734709   1.774987
     8  H    4.548133   1.117078   3.444702   2.167643   4.850567
     9  H    4.302582   1.118669   2.848168   2.153477   4.751004
    10  H    3.841666   1.100315   2.678679   2.193442   4.528466
    11  H    2.110928   2.484173   1.119103   2.130571   3.064101
    12  H    2.190651   3.015613   1.119284   2.186940   2.674934
    13  H    2.575869   2.159863   2.177696   1.116305   2.639080
    14  H    3.061948   2.127109   2.114721   1.099897   2.986030
                    6          7          8          9         10
     6  H    0.000000
     7  H    1.834961   0.000000
     8  H    5.442262   4.443834   0.000000
     9  H    4.944807   4.564754   1.805839   0.000000
    10  H    4.491970   3.683849   1.807180   1.800626   0.000000
    11  H    2.421156   2.335101   3.524580   2.860071   2.206185
    12  H    2.424273   3.065645   4.020820   2.960566   3.334091
    13  H    3.645075   2.424386   2.397604   3.063377   2.654111
    14  H    3.938646   3.526245   2.564420   2.341327   3.059135
                   11         12         13         14
    11  H    0.000000
    12  H    1.778176   0.000000
    13  H    2.740635   3.078210   0.000000
    14  H    2.970031   2.325085   1.805252   0.000000
 Stoichiometry    C4H10
 Framework group  C1[X(C4H10)]
 Deg. of freedom    36
 Full point group                 C1      NOp   1
 Largest Abelian subgroup         C1      NOp   1
 Largest concise Abelian subgroup C1      NOp   1
                         Standard orientation:                         
 ---------------------------------------------------------------------
 Center     Atomic      Atomic             Coordinates (Angstroms)
 Number     Number       Type             X           Y           Z
 ---------------------------------------------------------------------
      1          6           0       -1.885453    0.121895   -0.192067
      2          6           0        1.859756   -0.138671   -0.211169
      3          6           0       -0.563163   -0.476874    0.235691
      4          6           0        0.563111    0.513812    0.230601
      5          1           0       -2.142783    1.035526    0.373569
      6          1           0       -2.644457   -0.674990   -0.122737
      7          1           0       -1.734323    0.449672   -1.251397
      8          1           0        2.626593    0.646347   -0.419900
      9          1           0        2.242402   -0.775217    0.625380
     10          1           0        1.738148   -0.771283   -1.103193
     11          1           0       -0.331083   -1.267961   -0.521087
     12          1           0       -0.649408   -1.019798    1.210674
     13          1           0        0.346022    1.386192   -0.431187
     14          1           0        0.703383    0.870543    1.261543
 ---------------------------------------------------------------------
 Rotational constants (GHZ):     20.7146261      3.8269900      3.6689009
 Leave Link  202 at Tue May  8 09:20:48 2018, MaxMem=  671088640 cpu:       0.8
 (Enter /shared/apps/gaussian/G09_LINUX_LINDA/g09/l301.exe)
 Standard basis: 6-311+G(2df,2p) (5D, 7F)
 Ernie: Thresh=  0.10000D-02 Tol=  0.10000D-05 Strict=F.
 There are   226 symmetry adapted basis functions of A   symmetry.
 Integral buffers will be    131072 words long.
 Raffenetti 2 integral format.
 Two-electron integral symmetry is turned on.
   226 basis functions,   318 primitive gaussians,   246 cartesian basis functions
    17 alpha electrons       17 beta electrons
       nuclear repulsion energy       131.6081830915 Hartrees.
 IExCor= 4336 DFT=T Ex+Corr=M062X ExCW=0 ScaHFX=  0.540000
 ScaDFX=  1.000000  1.000000  1.000000  1.000000 ScalE2=  1.000000  1.000000
 IRadAn=      0 IRanWt=     -1 IRanGd=            0 ICorTp=0
 NAtoms=   14 NActive=   14 NUniq=   14 SFac= 1.00D+00 NAtFMM=   50 NAOKFM=F Big=F
 Leave Link  301 at Tue May  8 09:20:48 2018, MaxMem=  671088640 cpu:       1.0
 (Enter /shared/apps/gaussian/G09_LINUX_LINDA/g09/l302.exe)
 NPDir=0 NMtPBC=     1 NCelOv=     1 NCel=       1 NClECP=     1 NCelD=      1
         NCelK=      1 NCelE2=     1 NClLst=     1 CellRange=     0.0.
 One-electron integrals computed using PRISM.
 NBasis=   226 RedAO= T  NBF=   226
 NBsUse=   226 1.00D-06 NBFU=   226
 Precomputing XC quadrature grid using
 IXCGrd= 2 IRadAn=           0 IRanWt=          -1 IRanGd=           0 AccXCQ= 0.00D+00.
 NRdTot=     900 NPtTot=      114156 NUsed=      120651 NTot=      120683
 NSgBfM=   246   246   246   246   246 NAtAll=    14    14.
 Leave Link  302 at Tue May  8 09:20:50 2018, MaxMem=  671088640 cpu:      12.9
 (Enter /shared/apps/gaussian/G09_LINUX_LINDA/g09/l303.exe)
 DipDrv:  MaxL=1.
 Leave Link  303 at Tue May  8 09:20:50 2018, MaxMem=  671088640 cpu:       2.9
 (Enter /shared/apps/gaussian/G09_LINUX_LINDA/g09/l401.exe)
 Harris functional with IExCor= 1009 diagonalized for initial guess.
 ExpMin= 4.38D-02 ExpMax= 4.56D+03 ExpMxC= 6.82D+02 IAcc=2 IRadAn=         0 AccDes= 0.00D+00
 HarFok:  IExCor= 1009 AccDes= 0.00D+00 IRadAn=         0 IDoV= 1
 ScaDFX=  1.000000  1.000000  1.000000  1.000000
 FoFCou: FMM=F IPFlag=           0 FMFlag=      100000 FMFlg1=           0
         NFxFlg=           0 DoJE=T BraDBF=F KetDBF=T FulRan=T
         Omega=  0.000000  0.000000  1.000000  0.000000  0.000000 ICntrl=     500 IOpCl=  0
         NMat0=    1 NMatS0=    1 NMatT0=    0 NMatD0=    1 NMtDS0=    0 NMtDT0=    0
         I1Cent=           4 NGrid=           0.
 Petite list used in FoFCou.
 Harris En= -158.409601710698    
 Initial guess orbital symmetries:
       Occupied  (A) (A) (A) (A) (A) (A) (A) (A) (A) (A) (A) (A)
                 (A) (A) (A) (A) (A)
       Virtual   (A) (A) (A) (A) (A) (A) (A) (A) (A) (A) (A) (A)
                 (A) (A) (A) (A) (A) (A) (A) (A) (A) (A) (A) (A)
                 (A) (A) (A) (A) (A) (A) (A) (A) (A) (A) (A) (A)
                 (A) (A) (A) (A) (A) (A) (A) (A) (A) (A) (A) (A)
                 (A) (A) (A) (A) (A) (A) (A) (A) (A) (A) (A) (A)
                 (A) (A) (A) (A) (A) (A) (A) (A) (A) (A) (A) (A)
                 (A) (A) (A) (A) (A) (A) (A) (A) (A) (A) (A) (A)
                 (A) (A) (A) (A) (A) (A) (A) (A) (A) (A) (A) (A)
                 (A) (A) (A) (A) (A) (A) (A) (A) (A) (A) (A) (A)
                 (A) (A) (A) (A) (A) (A) (A) (A) (A) (A) (A) (A)
                 (A) (A) (A) (A) (A) (A) (A) (A) (A) (A) (A) (A)
                 (A) (A) (A) (A) (A) (A) (A) (A) (A) (A) (A) (A)
                 (A) (A) (A) (A) (A) (A) (A) (A) (A) (A) (A) (A)
                 (A) (A) (A) (A) (A) (A) (A) (A) (A) (A) (A) (A)
                 (A) (A) (A) (A) (A) (A) (A) (A) (A) (A) (A) (A)
                 (A) (A) (A) (A) (A) (A) (A) (A) (A) (A) (A) (A)
                 (A) (A) (A) (A) (A) (A) (A) (A) (A) (A) (A) (A)
                 (A) (A) (A) (A) (A)
 The electronic state of the initial guess is 1-A.
 Leave Link  401 at Tue May  8 09:20:54 2018, MaxMem=  671088640 cpu:      38.9
 (Enter /shared/apps/gaussian/G09_LINUX_LINDA/g09/l502.exe)
 Closed shell SCF:
 Requested convergence on RMS density matrix=1.00D-08 within 128 cycles.
 Requested convergence on MAX density matrix=1.00D-06.
 Requested convergence on             energy=1.00D-06.
 No special actions if energy rises.
 Using DIIS extrapolation, IDIIS=  1040.
 Integral symmetry usage will be decided dynamically.
       120512 words used for storage of precomputed grid.
 Keep R1 ints in memory in canonical form, NReq=469379211.
 IEnd=      326938 IEndB=      326938 NGot=   671088640 MDV=   209321306
 LenX=   209321306 LenY=   209260349
 Symmetry not used in FoFDir.
 MinBra= 0 MaxBra= 3 Meth= 1.
 IRaf=       0 NMat=   1 IRICut=       1 DoRegI=T DoRafI=F ISym2E= 0 JSym2E=0.

 Cycle   1  Pass 1  IDiag  1:
 E= -158.195279114330    
 DIIS: error= 2.77D-02 at cycle   1 NSaved=   1.
 NSaved= 1 IEnMin= 1 EnMin= -158.195279114330     IErMin= 1 ErrMin= 2.77D-02
 ErrMax= 2.77D-02 EMaxC= 1.00D-01 BMatC= 2.13D-01 BMatP= 2.13D-01
 IDIUse=3 WtCom= 7.23D-01 WtEn= 2.77D-01
 Coeff-Com:  0.100D+01
 Coeff-En:   0.100D+01
 Coeff:      0.100D+01
 Gap=     0.348 Goal=   None    Shift=    0.000
 GapD=    0.348 DampG=1.000 DampE=0.500 DampFc=0.5000 IDamp=-1.
 Damping current iteration by 5.00D-01
 RMSDP=2.99D-03 MaxDP=9.92D-02              OVMax= 1.68D-01

 Cycle   2  Pass 1  IDiag  1:
 E= -158.298804269305     Delta-E=       -0.103525154976 Rises=F Damp=T
 DIIS: error= 5.61D-03 at cycle   2 NSaved=   2.
 NSaved= 2 IEnMin= 2 EnMin= -158.298804269305     IErMin= 2 ErrMin= 5.61D-03
 ErrMax= 5.61D-03 EMaxC= 1.00D-01 BMatC= 9.59D-03 BMatP= 2.13D-01
 IDIUse=3 WtCom= 9.44D-01 WtEn= 5.61D-02
 Coeff-Com: -0.639D-01 0.106D+01
 Coeff-En:   0.000D+00 0.100D+01
 Coeff:     -0.603D-01 0.106D+01
 Gap=     0.405 Goal=   None    Shift=    0.000
 RMSDP=8.80D-04 MaxDP=1.73D-02 DE=-1.04D-01 OVMax= 8.98D-02

 Cycle   3  Pass 1  IDiag  1:
 E= -158.400347586562     Delta-E=       -0.101543317257 Rises=F Damp=F
 DIIS: error= 2.49D-03 at cycle   3 NSaved=   3.
 NSaved= 3 IEnMin= 3 EnMin= -158.400347586562     IErMin= 3 ErrMin= 2.49D-03
 ErrMax= 2.49D-03 EMaxC= 1.00D-01 BMatC= 9.87D-04 BMatP= 9.59D-03
 IDIUse=3 WtCom= 9.75D-01 WtEn= 2.49D-02
 Coeff-Com: -0.453D-01 0.195D+00 0.850D+00
 Coeff-En:   0.000D+00 0.000D+00 0.100D+01
 Coeff:     -0.442D-01 0.190D+00 0.854D+00
 Gap=     0.390 Goal=   None    Shift=    0.000
 RMSDP=1.29D-04 MaxDP=3.92D-03 DE=-1.02D-01 OVMax= 8.59D-03

 Cycle   4  Pass 1  IDiag  1:
 E= -158.401154657107     Delta-E=       -0.000807070545 Rises=F Damp=F
 DIIS: error= 9.55D-04 at cycle   4 NSaved=   4.
 NSaved= 4 IEnMin= 4 EnMin= -158.401154657107     IErMin= 4 ErrMin= 9.55D-04
 ErrMax= 9.55D-04 EMaxC= 1.00D-01 BMatC= 1.77D-04 BMatP= 9.87D-04
 IDIUse=3 WtCom= 9.90D-01 WtEn= 9.55D-03
 Coeff-Com: -0.142D-01 0.375D-01 0.339D+00 0.638D+00
 Coeff-En:   0.000D+00 0.000D+00 0.000D+00 0.100D+01
 Coeff:     -0.141D-01 0.372D-01 0.335D+00 0.642D+00
 Gap=     0.391 Goal=   None    Shift=    0.000
 RMSDP=5.82D-05 MaxDP=2.45D-03 DE=-8.07D-04 OVMax= 2.78D-03

 Cycle   5  Pass 1  IDiag  1:
 E= -158.401316383541     Delta-E=       -0.000161726433 Rises=F Damp=F
 DIIS: error= 1.48D-04 at cycle   5 NSaved=   5.
 NSaved= 5 IEnMin= 5 EnMin= -158.401316383541     IErMin= 5 ErrMin= 1.48D-04
 ErrMax= 1.48D-04 EMaxC= 1.00D-01 BMatC= 7.29D-06 BMatP= 1.77D-04
 IDIUse=3 WtCom= 9.99D-01 WtEn= 1.48D-03
 Coeff-Com: -0.505D-03-0.185D-02 0.399D-01 0.197D+00 0.765D+00
 Coeff-En:   0.000D+00 0.000D+00 0.000D+00 0.000D+00 0.100D+01
 Coeff:     -0.504D-03-0.185D-02 0.399D-01 0.197D+00 0.766D+00
 Gap=     0.391 Goal=   None    Shift=    0.000
 RMSDP=1.48D-05 MaxDP=7.21D-04 DE=-1.62D-04 OVMax= 5.29D-04

 Cycle   6  Pass 1  IDiag  1:
 E= -158.401323308865     Delta-E=       -0.000006925325 Rises=F Damp=F
 DIIS: error= 2.58D-05 at cycle   6 NSaved=   6.
 NSaved= 6 IEnMin= 6 EnMin= -158.401323308865     IErMin= 6 ErrMin= 2.58D-05
 ErrMax= 2.58D-05 EMaxC= 1.00D-01 BMatC= 1.47D-07 BMatP= 7.29D-06
 IDIUse=1 WtCom= 1.00D+00 WtEn= 0.00D+00
 Coeff-Com:  0.945D-03-0.254D-02-0.167D-01-0.170D-01 0.626D-01 0.973D+00
 Coeff:      0.945D-03-0.254D-02-0.167D-01-0.170D-01 0.626D-01 0.973D+00
 Gap=     0.391 Goal=   None    Shift=    0.000
 RMSDP=5.83D-06 MaxDP=2.96D-04 DE=-6.93D-06 OVMax= 1.34D-04

 Cycle   7  Pass 1  IDiag  1:
 E= -158.401323495711     Delta-E=       -0.000000186846 Rises=F Damp=F
 DIIS: error= 9.39D-06 at cycle   7 NSaved=   7.
 NSaved= 7 IEnMin= 7 EnMin= -158.401323495711     IErMin= 7 ErrMin= 9.39D-06
 ErrMax= 9.39D-06 EMaxC= 1.00D-01 BMatC= 1.16D-08 BMatP= 1.47D-07
 IDIUse=1 WtCom= 1.00D+00 WtEn= 0.00D+00
 Coeff-Com:  0.253D-03-0.585D-03-0.631D-02-0.137D-01-0.191D-01 0.257D+00
 Coeff-Com:  0.782D+00
 Coeff:      0.253D-03-0.585D-03-0.631D-02-0.137D-01-0.191D-01 0.257D+00
 Coeff:      0.782D+00
 Gap=     0.391 Goal=   None    Shift=    0.000
 RMSDP=1.03D-06 MaxDP=4.63D-05 DE=-1.87D-07 OVMax= 3.06D-05

 Cycle   8  Pass 1  IDiag  1:
 E= -158.401323509009     Delta-E=       -0.000000013298 Rises=F Damp=F
 DIIS: error= 1.16D-06 at cycle   8 NSaved=   8.
 NSaved= 8 IEnMin= 8 EnMin= -158.401323509009     IErMin= 8 ErrMin= 1.16D-06
 ErrMax= 1.16D-06 EMaxC= 1.00D-01 BMatC= 2.46D-10 BMatP= 1.16D-08
 IDIUse=1 WtCom= 1.00D+00 WtEn= 0.00D+00
 Coeff-Com: -0.203D-04 0.424D-04-0.612D-04-0.877D-03-0.346D-02-0.541D-02
 Coeff-Com:  0.945D-01 0.915D+00
 Coeff:     -0.203D-04 0.424D-04-0.612D-04-0.877D-03-0.346D-02-0.541D-02
 Coeff:      0.945D-01 0.915D+00
 Gap=     0.391 Goal=   None    Shift=    0.000
 RMSDP=1.62D-07 MaxDP=7.20D-06 DE=-1.33D-08 OVMax= 5.48D-06

 Cycle   9  Pass 1  IDiag  1:
 E= -158.401323509280     Delta-E=       -0.000000000272 Rises=F Damp=F
 DIIS: error= 3.15D-07 at cycle   9 NSaved=   9.
 NSaved= 9 IEnMin= 9 EnMin= -158.401323509280     IErMin= 9 ErrMin= 3.15D-07
 ErrMax= 3.15D-07 EMaxC= 1.00D-01 BMatC= 2.45D-11 BMatP= 2.46D-10
 IDIUse=1 WtCom= 1.00D+00 WtEn= 0.00D+00
 Coeff-Com: -0.135D-04 0.303D-04 0.146D-03 0.586D-04-0.630D-03-0.856D-02
 Coeff-Com:  0.908D-02 0.297D+00 0.703D+00
 Coeff:     -0.135D-04 0.303D-04 0.146D-03 0.586D-04-0.630D-03-0.856D-02
 Coeff:      0.908D-02 0.297D+00 0.703D+00
 Gap=     0.391 Goal=   None    Shift=    0.000
 RMSDP=2.94D-08 MaxDP=1.66D-06 DE=-2.72D-10 OVMax= 1.27D-06

 Cycle  10  Pass 1  IDiag  1:
 E= -158.401323509303     Delta-E=       -0.000000000023 Rises=F Damp=F
 DIIS: error= 1.04D-07 at cycle  10 NSaved=  10.
 NSaved=10 IEnMin=10 EnMin= -158.401323509303     IErMin=10 ErrMin= 1.04D-07
 ErrMax= 1.04D-07 EMaxC= 1.00D-01 BMatC= 2.44D-12 BMatP= 2.45D-11
 IDIUse=1 WtCom= 1.00D+00 WtEn= 0.00D+00
 Coeff-Com: -0.236D-05 0.616D-05 0.455D-04 0.597D-04 0.349D-05-0.225D-02
 Coeff-Com: -0.405D-02 0.276D-01 0.249D+00 0.729D+00
 Coeff:     -0.236D-05 0.616D-05 0.455D-04 0.597D-04 0.349D-05-0.225D-02
 Coeff:     -0.405D-02 0.276D-01 0.249D+00 0.729D+00
 Gap=     0.391 Goal=   None    Shift=    0.000
 RMSDP=1.05D-08 MaxDP=6.47D-07 DE=-2.28D-11 OVMax= 3.74D-07

 Cycle  11  Pass 1  IDiag  1:
 E= -158.401323509306     Delta-E=       -0.000000000003 Rises=F Damp=F
 DIIS: error= 1.99D-08 at cycle  11 NSaved=  11.
 NSaved=11 IEnMin=11 EnMin= -158.401323509306     IErMin=11 ErrMin= 1.99D-08
 ErrMax= 1.99D-08 EMaxC= 1.00D-01 BMatC= 9.16D-14 BMatP= 2.44D-12
 IDIUse=1 WtCom= 1.00D+00 WtEn= 0.00D+00
 Coeff-Com:  0.665D-06-0.109D-05-0.205D-05 0.153D-05 0.318D-04 0.127D-03
 Coeff-Com: -0.157D-02-0.152D-01 0.940D-02 0.172D+00 0.835D+00
 Coeff:      0.665D-06-0.109D-05-0.205D-05 0.153D-05 0.318D-04 0.127D-03
 Coeff:     -0.157D-02-0.152D-01 0.940D-02 0.172D+00 0.835D+00
 Gap=     0.391 Goal=   None    Shift=    0.000
 RMSDP=2.63D-09 MaxDP=1.60D-07 DE=-2.84D-12 OVMax= 1.13D-07

 SCF Done:  E(RM062X) =  -158.401323509     A.U. after   11 cycles
             Convg  =    0.2629D-08             -V/T =  2.0055
 KE= 1.575294246615D+02 PE=-6.292211957660D+02 EE= 1.816822645036D+02
 Leave Link  502 at Tue May  8 09:21:54 2018, MaxMem=  671088640 cpu:     594.2
 (Enter /shared/apps/gaussian/G09_LINUX_LINDA/g09/l601.exe)
 Copying SCF densities to generalized density rwf, IOpCl= 0 IROHF=0.

 **********************************************************************

            Population analysis using the SCF density.

 **********************************************************************

 Orbital symmetries:
       Occupied  (A) (A) (A) (A) (A) (A) (A) (A) (A) (A) (A) (A)
                 (A) (A) (A) (A) (A)
       Virtual   (A) (A) (A) (A) (A) (A) (A) (A) (A) (A) (A) (A)
                 (A) (A) (A) (A) (A) (A) (A) (A) (A) (A) (A) (A)
                 (A) (A) (A) (A) (A) (A) (A) (A) (A) (A) (A) (A)
                 (A) (A) (A) (A) (A) (A) (A) (A) (A) (A) (A) (A)
                 (A) (A) (A) (A) (A) (A) (A) (A) (A) (A) (A) (A)
                 (A) (A) (A) (A) (A) (A) (A) (A) (A) (A) (A) (A)
                 (A) (A) (A) (A) (A) (A) (A) (A) (A) (A) (A) (A)
                 (A) (A) (A) (A) (A) (A) (A) (A) (A) (A) (A) (A)
                 (A) (A) (A) (A) (A) (A) (A) (A) (A) (A) (A) (A)
                 (A) (A) (A) (A) (A) (A) (A) (A) (A) (A) (A) (A)
                 (A) (A) (A) (A) (A) (A) (A) (A) (A) (A) (A) (A)
                 (A) (A) (A) (A) (A) (A) (A) (A) (A) (A) (A) (A)
                 (A) (A) (A) (A) (A) (A) (A) (A) (A) (A) (A) (A)
                 (A) (A) (A) (A) (A) (A) (A) (A) (A) (A) (A) (A)
                 (A) (A) (A) (A) (A) (A) (A) (A) (A) (A) (A) (A)
                 (A) (A) (A) (A) (A) (A) (A) (A) (A) (A) (A) (A)
                 (A) (A) (A) (A) (A) (A) (A) (A) (A) (A) (A) (A)
                 (A) (A) (A) (A) (A)
 The electronic state is 1-A.
 Alpha  occ. eigenvalues --  -10.52620 -10.52575 -10.52376 -10.52366  -0.89927
 Alpha  occ. eigenvalues --   -0.81609  -0.70908  -0.64976  -0.54099  -0.49811
 Alpha  occ. eigenvalues --   -0.49120  -0.46642  -0.42994  -0.41253  -0.38816
 Alpha  occ. eigenvalues --   -0.37340  -0.37093
 Alpha virt. eigenvalues --    0.02028   0.03152   0.03658   0.04040   0.05929
 Alpha virt. eigenvalues --    0.06924   0.07119   0.07651   0.07906   0.09896
 Alpha virt. eigenvalues --    0.10654   0.10904   0.12497   0.13435   0.16575
 Alpha virt. eigenvalues --    0.16801   0.18690   0.20148   0.21138   0.21522
 Alpha virt. eigenvalues --    0.22406   0.24230   0.25130   0.25692   0.28030
 Alpha virt. eigenvalues --    0.29476   0.30099   0.30966   0.31366   0.42275
 Alpha virt. eigenvalues --    0.42914   0.43519   0.44620   0.45124   0.46378
 Alpha virt. eigenvalues --    0.49169   0.49846   0.51087   0.53801   0.54323
 Alpha virt. eigenvalues --    0.56109   0.56520   0.58366   0.60288   0.61087
 Alpha virt. eigenvalues --    0.61479   0.63466   0.63943   0.65123   0.67786
 Alpha virt. eigenvalues --    0.68053   0.69275   0.70129   0.73303   0.78701
 Alpha virt. eigenvalues --    0.80019   0.81127   0.85345   0.86664   0.90327
 Alpha virt. eigenvalues --    0.91244   0.93055   0.94560   0.98928   1.01738
 Alpha virt. eigenvalues --    1.06200   1.07429   1.09891   1.13132   1.14267
 Alpha virt. eigenvalues --    1.15343   1.17292   1.18937   1.19658   1.20108
 Alpha virt. eigenvalues --    1.23316   1.25163   1.25552   1.26518   1.29091
 Alpha virt. eigenvalues --    1.30854   1.33034   1.35498   1.35999   1.38760
 Alpha virt. eigenvalues --    1.40491   1.42202   1.42719   1.44278   1.45779
 Alpha virt. eigenvalues --    1.46416   1.48021   1.48355   1.50971   1.51291
 Alpha virt. eigenvalues --    1.54242   1.56276   1.58213   1.59252   1.60087
 Alpha virt. eigenvalues --    1.62932   1.65343   1.65729   1.70790   1.75929
 Alpha virt. eigenvalues --    2.38979   2.46511   2.46724   2.50136   2.53553
 Alpha virt. eigenvalues --    2.56623   2.63461   2.64314   2.67663   2.70570
 Alpha virt. eigenvalues --    2.77298   2.80243   2.83697   2.84991   2.86692
 Alpha virt. eigenvalues --    2.90314   2.91773   2.97329   2.98470   2.98659
 Alpha virt. eigenvalues --    3.04745   3.06636   3.09849   3.13029   3.15002
 Alpha virt. eigenvalues --    3.16917   3.18291   3.21345   3.22444   3.23870
 Alpha virt. eigenvalues --    3.24951   3.28160   3.30819   3.31884   3.35399
 Alpha virt. eigenvalues --    3.37786   3.41461   3.42947   3.44262   3.49588
 Alpha virt. eigenvalues --    3.56162   3.58178   3.59359   3.61099   3.64574
 Alpha virt. eigenvalues --    3.67259   3.71007   3.74303   3.75654   3.77907
 Alpha virt. eigenvalues --    3.80968   3.82286   3.88127   3.89100   3.89618
 Alpha virt. eigenvalues --    3.95623   3.97183   3.98101   3.98632   4.00665
 Alpha virt. eigenvalues --    4.04240   4.06809   4.08515   4.09949   4.16512
 Alpha virt. eigenvalues --    4.16618   4.18773   4.20330   4.21402   4.22937
 Alpha virt. eigenvalues --    4.25256   4.27903   4.28074   4.32626   4.38042
 Alpha virt. eigenvalues --    4.40192   4.43059   4.46181   4.48141   4.50753
 Alpha virt. eigenvalues --    4.52795   4.54228   4.56933   4.60649   4.63514
 Alpha virt. eigenvalues --    4.65902   4.72055   4.78072   4.80605   5.00823
 Alpha virt. eigenvalues --    5.14561   5.40167   5.42175   5.48577   5.52285
 Alpha virt. eigenvalues --    5.53003   5.54446   5.54693   5.59432   5.61006
 Alpha virt. eigenvalues --   24.21473  24.29847  24.37391  24.48975
          Condensed to atoms (all electrons):
              1          2          3          4          5          6
     1  C    5.078538   0.004040   0.191496   0.023459   0.406200   0.415185
     2  C    0.004040   5.095982   0.015906   0.184382   0.001765  -0.001204
     3  C    0.191496   0.015906   5.309905   0.011769  -0.017132  -0.058903
     4  C    0.023459   0.184382   0.011769   5.335655  -0.016191   0.026342
     5  H    0.406200   0.001765  -0.017132  -0.016191   0.550376  -0.018789
     6  H    0.415185  -0.001204  -0.058903   0.026342  -0.018789   0.542827
     7  H    0.420062  -0.004445  -0.029986  -0.016033  -0.041661  -0.022360
     8  H   -0.000055   0.414206   0.024303  -0.057775   0.000023   0.000024
     9  H    0.000706   0.406098  -0.021866  -0.009497  -0.000013   0.000020
    10  H   -0.001017   0.420746  -0.019716  -0.027882  -0.000061  -0.000062
    11  H   -0.060401   0.003302   0.491829  -0.100085   0.007304  -0.003865
    12  H   -0.016244  -0.015631   0.409194  -0.003539  -0.005303  -0.006569
    13  H    0.019315  -0.061129  -0.085106   0.479622  -0.002786   0.000320
    14  H   -0.012004  -0.028136  -0.031711   0.430340   0.000691  -0.000416
              7          8          9         10         11         12
     1  C    0.420062  -0.000055   0.000706  -0.001017  -0.060401  -0.016244
     2  C   -0.004445   0.414206   0.406098   0.420746   0.003302  -0.015631
     3  C   -0.029986   0.024303  -0.021866  -0.019716   0.491829   0.409194
     4  C   -0.016033  -0.057775  -0.009497  -0.027882  -0.100085  -0.003539
     5  H   -0.041661   0.000023  -0.000013  -0.000061   0.007304  -0.005303
     6  H   -0.022360   0.000024   0.000020  -0.000062  -0.003865  -0.006569
     7  H    0.569209  -0.000047  -0.000041   0.000086  -0.015969   0.006569
     8  H   -0.000047   0.555176  -0.023606  -0.025994   0.000750  -0.000370
     9  H   -0.000041  -0.023606   0.556904  -0.034918  -0.001702   0.000748
    10  H    0.000086  -0.025994  -0.034918   0.556559   0.001086   0.000656
    11  H   -0.015969   0.000750  -0.001702   0.001086   0.568708  -0.039617
    12  H    0.006569  -0.000370   0.000748   0.000656  -0.039617   0.542885
    13  H   -0.000441  -0.008003   0.006775  -0.002592   0.000960   0.004896
    14  H    0.000156  -0.001744  -0.014404   0.005709   0.006769  -0.014012
             13         14
     1  C    0.019315  -0.012004
     2  C   -0.061129  -0.028136
     3  C   -0.085106  -0.031711
     4  C    0.479622   0.430340
     5  H   -0.002786   0.000691
     6  H    0.000320  -0.000416
     7  H   -0.000441   0.000156
     8  H   -0.008003  -0.001744
     9  H    0.006775  -0.014404
    10  H   -0.002592   0.005709
    11  H    0.000960   0.006769
    12  H    0.004896  -0.014012
    13  H    0.542266  -0.030587
    14  H   -0.030587   0.530631
 Mulliken atomic charges:
              1
     1  C   -0.469281
     2  C   -0.435882
     3  C   -0.189982
     4  C   -0.260567
     5  H    0.135576
     6  H    0.127450
     7  H    0.134902
     8  H    0.123112
     9  H    0.134796
    10  H    0.127400
    11  H    0.140931
    12  H    0.136337
    13  H    0.136490
    14  H    0.158717
 Sum of Mulliken atomic charges =   0.00000
 Mulliken charges with hydrogens summed into heavy atoms:
              1
     1  C   -0.071352
     2  C   -0.050574
     3  C    0.087286
     4  C    0.034640
 Sum of Mulliken charges with hydrogens summed into heavy atoms =   0.00000
 Electronic spatial extent (au):  <R**2>=            409.6512
 Charge=              0.0000 electrons
 Dipole moment (field-independent basis, Debye):
    X=              0.0285    Y=             -0.0062    Z=              0.0634  Tot=              0.0698
 Quadrupole moment (field-independent basis, Debye-Ang):
   XX=            -30.1028   YY=            -28.7958   ZZ=            -28.3041
   XY=              0.4781   XZ=             -0.0638   YZ=             -0.1042
 Traceless Quadrupole moment (field-independent basis, Debye-Ang):
   XX=             -1.0352   YY=              0.2718   ZZ=              0.7635
   XY=              0.4781   XZ=             -0.0638   YZ=             -0.1042
 Octapole moment (field-independent basis, Debye-Ang**2):
  XXX=              0.3790  YYY=              0.4555  ZZZ=              0.7391  XYY=             -0.5772
  XXY=             -0.2775  XXZ=              1.2881  XZZ=              0.6192  YZZ=             -0.3602
  YYZ=             -0.2661  XYZ=             -0.3442
 Hexadecapole moment (field-independent basis, Debye-Ang**3):
 XXXX=           -439.1498 YYYY=            -92.6293 ZZZZ=            -68.8837 XXXY=              7.9117
 XXXZ=             -1.6722 YYYX=              1.0705 YYYZ=             -0.1934 ZZZX=              0.8569
 ZZZY=              0.0071 XXYY=            -82.8647 XXZZ=            -84.0090 YYZZ=            -25.6479
 XXYZ=             -0.6840 YYXZ=             -1.1902 ZZXY=             -0.8875
 N-N= 1.316081830915D+02 E-N=-6.292211966445D+02  KE= 1.575294246615D+02
 No NMR shielding tensors so no spin-rotation constants.
 Leave Link  601 at Tue May  8 09:21:55 2018, MaxMem=  671088640 cpu:      12.4
 (Enter /shared/apps/gaussian/G09_LINUX_LINDA/g09/l701.exe)
 Compute integral first derivatives.
 ... and contract with generalized density number  0.
 Leave Link  701 at Tue May  8 09:21:57 2018, MaxMem=  671088640 cpu:      19.0
 (Enter /shared/apps/gaussian/G09_LINUX_LINDA/g09/l702.exe)
 L702 exits ... SP integral derivatives will be done elsewhere.
 Leave Link  702 at Tue May  8 09:21:57 2018, MaxMem=  671088640 cpu:       0.2
 (Enter /shared/apps/gaussian/G09_LINUX_LINDA/g09/l703.exe)
 Compute integral first derivatives, UseDBF=F ICtDFT=           0.
 Integral derivatives from FoFDir, PRISM(SPDF).
 Calling FoFJK, ICntrl=      2127 FMM=F ISym2X=0 I1Cent= 0 IOpClX= 0 NMat=1 NMatS=1 NMatT=0.
 FoFCou: FMM=F IPFlag=           0 FMFlag=      100000 FMFlg1=         800
         NFxFlg=           0 DoJE=F BraDBF=F KetDBF=F FulRan=T
         Omega=  0.000000  0.000000  1.000000  0.000000  0.000000 ICntrl=    2127 IOpCl=  0
         NMat0=    1 NMatS0=    1 NMatT0=    0 NMatD0=    1 NMtDS0=    0 NMtDT0=    0
         I1Cent=           0 NGrid=           0.
 Symmetry not used in FoFCou.
 Leave Link  703 at Tue May  8 09:22:08 2018, MaxMem=  671088640 cpu:     100.7
 (Enter /shared/apps/gaussian/G09_LINUX_LINDA/g09/l716.exe)
 Dipole        = 1.12135138D-02-2.43697951D-03 2.49356672D-02
 ***** Axes restored to original set *****
 -------------------------------------------------------------------
 Center     Atomic                   Forces (Hartrees/Bohr)
 Number     Number              X              Y              Z
 -------------------------------------------------------------------
      1        6           0.000311161    0.006816863    0.010866817
      2        6          -0.023715843    0.004430418   -0.009584586
      3        6           0.003713312   -0.027462656    0.008694022
      4        6          -0.008347962    0.012032295   -0.003416925
      5        1           0.001103154   -0.011603338    0.003065681
      6        1           0.003325698    0.014683940   -0.000189289
      7        1           0.008686056   -0.009788183   -0.012934007
      8        1           0.006380038   -0.015560541    0.000093677
      9        1           0.004866322    0.009063118    0.013629095
     10        1          -0.000143737    0.004667158   -0.005989181
     11        1           0.003352960    0.004861166   -0.013407968
     12        1          -0.000405963    0.012930346    0.010472712
     13        1          -0.001294206   -0.013295715   -0.007384965
     14        1           0.002169009    0.008225128    0.006084916
 -------------------------------------------------------------------
 Cartesian Forces:  Max     0.027462656 RMS     0.009862095
 Leave Link  716 at Tue May  8 09:22:08 2018, MaxMem=  671088640 cpu:       0.4
 (Enter /shared/apps/gaussian/G09_LINUX_LINDA/g09/l103.exe)

 GradGradGradGradGradGradGradGradGradGradGradGradGradGradGradGradGradGrad
 Berny optimization.
 Internal  Forces:  Max     0.021221291 RMS     0.007311825
 Search for a local minimum.
 Step number   1 out of a maximum of   74
 All quantities printed in internal units (Hartrees-Bohrs-Radians)
 Swaping is turned off.
 Second derivative matrix not updated -- first step.
 ITU=  0
     Eigenvalues ---    0.00537   0.00591   0.00766   0.03561   0.03962
     Eigenvalues ---    0.05130   0.05186   0.05490   0.05684   0.05971
     Eigenvalues ---    0.06499   0.08129   0.08629   0.12027   0.12459
     Eigenvalues ---    0.16000   0.16000   0.16000   0.16000   0.16000
     Eigenvalues ---    0.16000   0.21879   0.21974   0.30629   0.31025
     Eigenvalues ---    0.31637   0.31652   0.31655   0.31699   0.31862
     Eigenvalues ---    0.31941   0.32378   0.33142   0.33387   0.33647
     Eigenvalues ---    0.33693
 Quadratic step=7.873D-01 exceeds max=3.000D-01 adjusted using Lamda=-2.686D-02.
 Angle between NR and scaled steps=  37.41 degrees.
 Angle between quadratic step and forces=  37.30 degrees.
 Linear search not attempted -- option 19 set.
 Iteration  1 RMS(Cart)=  0.06681925 RMS(Int)=  0.00208888
 Iteration  2 RMS(Cart)=  0.00219556 RMS(Int)=  0.00062095
 Iteration  3 RMS(Cart)=  0.00000483 RMS(Int)=  0.00062093
 Iteration  4 RMS(Cart)=  0.00000000 RMS(Int)=  0.00062093
 Variable       Old X    -DE/DX   Delta X   Delta X   Delta X     New X
                                 (Linear)    (Quad)   (Total)
    R1        2.85964   0.01261   0.00000   0.03740   0.03740   2.89704
    R2        2.08803  -0.00962   0.00000  -0.02684  -0.02684   2.06119
    R3        2.08378  -0.00969   0.00000  -0.02687  -0.02687   2.05691
    R4        2.11485  -0.01643   0.00000  -0.04786  -0.04786   2.06699
    R5        2.86727   0.00960   0.00000   0.02883   0.02883   2.89610
    R6        2.11097  -0.01625   0.00000  -0.04703  -0.04703   2.06394
    R7        2.11398  -0.01638   0.00000  -0.04764  -0.04764   2.06634
    R8        2.07929  -0.00737   0.00000  -0.02028  -0.02028   2.05902
    R9        2.83458   0.02122   0.00000   0.06052   0.06052   2.89510
   R10        2.11480  -0.01428   0.00000  -0.04158  -0.04158   2.07322
   R11        2.11514  -0.01636   0.00000  -0.04767  -0.04767   2.06747
   R12        2.10951  -0.01483   0.00000  -0.04283  -0.04283   2.06668
   R13        2.07850  -0.00508   0.00000  -0.01395  -0.01395   2.06455
    A1        1.96706  -0.00288   0.00000  -0.01790  -0.01762   1.94944
    A2        1.87312   0.01418   0.00000   0.06955   0.06841   1.94153
    A3        1.83947   0.01033   0.00000   0.06347   0.06193   1.90141
    A4        1.98784  -0.00959   0.00000  -0.06560  -0.06505   1.92280
    A5        1.84818  -0.00153   0.00000   0.00424   0.00420   1.85237
    A6        1.94349  -0.00971   0.00000  -0.04737  -0.05029   1.89321
    A7        1.91648   0.00587   0.00000   0.03289   0.03249   1.94897
    A8        1.89577   0.00612   0.00000   0.03523   0.03484   1.93060
    A9        1.97016  -0.00376   0.00000  -0.02425  -0.02398   1.94618
   A10        1.88052  -0.00402   0.00000  -0.01279  -0.01380   1.86672
   A11        1.90543  -0.00223   0.00000  -0.01660  -0.01637   1.88905
   A12        1.89326  -0.00211   0.00000  -0.01450  -0.01424   1.87901
   A13        1.97556   0.00361   0.00000   0.01486   0.01415   1.98971
   A14        1.84394   0.00129   0.00000   0.02910   0.02845   1.87239
   A15        1.95070  -0.00229   0.00000  -0.02486  -0.02502   1.92568
   A16        1.88480   0.00060   0.00000   0.02205   0.02130   1.90610
   A17        1.96187  -0.00325   0.00000  -0.03343  -0.03355   1.92832
   A18        1.83604   0.00023   0.00000  -0.00242  -0.00189   1.83415
   A19        1.93760   0.01007   0.00000   0.04985   0.04939   1.98699
   A20        1.90673  -0.00034   0.00000   0.00627   0.00678   1.91351
   A21        1.87904  -0.00296   0.00000  -0.00214  -0.00314   1.87590
   A22        1.95210  -0.00602   0.00000  -0.03611  -0.03632   1.91579
   A23        1.88261   0.00035   0.00000   0.01685   0.01608   1.89869
   A24        1.90394  -0.00117   0.00000  -0.03500  -0.03505   1.86888
    D1       -0.90840  -0.00022   0.00000  -0.00021  -0.00022  -0.90863
    D2       -2.96734  -0.00374   0.00000  -0.05357  -0.05397  -3.02130
    D3        1.32807  -0.00362   0.00000  -0.05503  -0.05508   1.27300
    D4       -3.11080   0.00352   0.00000   0.04465   0.04571  -3.06508
    D5        1.11346   0.00001   0.00000  -0.00872  -0.00803   1.10543
    D6       -0.87432   0.00013   0.00000  -0.01017  -0.00914  -0.88346
    D7        1.09924   0.00261   0.00000   0.03338   0.03274   1.13198
    D8       -0.95969  -0.00090   0.00000  -0.01998  -0.02100  -0.98069
    D9       -2.94747  -0.00078   0.00000  -0.02144  -0.02211  -2.96958
   D10        2.93008  -0.00190   0.00000  -0.00097  -0.00118   2.92889
   D11        0.76924  -0.00086   0.00000   0.00667   0.00615   0.77539
   D12       -1.29616   0.00240   0.00000   0.04620   0.04595  -1.25021
   D13       -1.30072   0.00015   0.00000   0.02282   0.02327  -1.27744
   D14        2.82162   0.00119   0.00000   0.03046   0.03061   2.85224
   D15        0.75623   0.00446   0.00000   0.07000   0.07040   0.82663
   D16        0.79964  -0.00070   0.00000   0.01329   0.01340   0.81304
   D17       -1.36120   0.00034   0.00000   0.02093   0.02074  -1.34046
   D18        2.85659   0.00361   0.00000   0.06047   0.06053   2.91712
   D19       -2.51165  -0.00342   0.00000  -0.06062  -0.06022  -2.57187
   D20       -0.37694  -0.00090   0.00000  -0.04235  -0.04267  -0.41961
   D21        1.71676  -0.00575   0.00000  -0.09642  -0.09669   1.62007
   D22       -0.47667   0.00064   0.00000  -0.00204  -0.00139  -0.47806
   D23        1.65804   0.00316   0.00000   0.01623   0.01616   1.67420
   D24       -2.53145  -0.00169   0.00000  -0.03783  -0.03786  -2.56931
   D25        1.54087  -0.00053   0.00000  -0.01011  -0.00977   1.53110
   D26       -2.60761   0.00199   0.00000   0.00816   0.00779  -2.59982
   D27       -0.51392  -0.00286   0.00000  -0.04591  -0.04624  -0.56015
         Item               Value     Threshold  Converged?
 Maximum Force            0.021221     0.000002     NO 
 RMS     Force            0.007312     0.000001     NO 
 Maximum Displacement     0.253005     0.000006     NO 
 RMS     Displacement     0.066141     0.000004     NO 
 Predicted change in Energy=-8.212960D-03
 GradGradGradGradGradGradGradGradGradGradGradGradGradGradGradGradGradGrad

 Leave Link  103 at Tue May  8 09:22:12 2018, MaxMem=  671088640 cpu:      43.4
 (Enter /shared/apps/gaussian/G09_LINUX_LINDA/g09/l202.exe)
                          Input orientation:                          
 ---------------------------------------------------------------------
 Center     Atomic      Atomic             Coordinates (Angstroms)
 Number     Number       Type             X           Y           Z
 ---------------------------------------------------------------------
      1          6           0        1.943596   -0.069070    0.062217
      2          6           0       -1.910337    0.139880    0.255946
      3          6           0        0.517918   -0.593978   -0.143107
      4          6           0       -0.533891    0.507534   -0.308796
      5          1           0        2.224942    0.646858   -0.711082
      6          1           0        2.662990   -0.885140    0.097752
      7          1           0        1.988784    0.474312    1.010428
      8          1           0       -2.567396    1.010286    0.315495
      9          1           0       -2.407475   -0.591541   -0.387116
     10          1           0       -1.830318   -0.295643    1.251492
     11          1           0        0.266192   -1.204687    0.732846
     12          1           0        0.485580   -1.284878   -0.990796
     13          1           0       -0.179522    1.430614    0.158529
     14          1           0       -0.660963    0.715353   -1.373809
 ---------------------------------------------------------------------
                    Distance matrix (angstroms):
                    1          2          3          4          5
     1  C    0.000000
     2  C    3.864452   0.000000
     3  C    1.533050   2.567920   0.000000
     4  C    2.570615   1.532550   1.532019   0.000000
     5  H    1.090734   4.276997   2.185452   2.791487   0.000000
     6  H    1.088467   4.689458   2.178101   3.510679   1.786929
     7  H    1.093806   3.985503   2.152983   2.846989   1.746179
     8  H    4.645234   1.092191   3.507583   2.185782   4.914513
     9  H    4.405303   1.093458   2.935553   2.173573   4.806025
    10  H    3.963349   1.089584   2.747385   2.181815   4.602732
    11  H    2.133788   2.602417   1.097099   2.157974   3.057752
    12  H    2.170907   3.053640   1.094059   2.171908   2.614426
    13  H    2.601145   2.161297   2.162494   1.093639   2.674312
    14  H    3.075908   2.132652   2.149123   1.092514   2.961814
                    6          7          8          9         10
     6  H    0.000000
     7  H    1.770774   0.000000
     8  H    5.567494   4.639933   0.000000
     9  H    5.102050   4.734582   1.756442   0.000000
    10  H    4.676371   3.903394   1.767717   1.762300   0.000000
    11  H    2.500019   2.421448   3.620706   2.962897   2.343227
    12  H    2.466950   3.059293   4.036686   3.035607   3.371917
    13  H    3.666918   2.518293   2.429661   3.057878   2.626720
    14  H    3.971867   3.572652   2.564219   2.394126   3.046589
                   11         12         13         14
    11  H    0.000000
    12  H    1.739398   0.000000
    13  H    2.733736   3.022781   0.000000
    14  H    2.997359   2.337130   1.758250   0.000000
 Stoichiometry    C4H10
 Framework group  C1[X(C4H10)]
 Deg. of freedom    36
 Full point group                 C1      NOp   1
 Largest Abelian subgroup         C1      NOp   1
 Largest concise Abelian subgroup C1      NOp   1
                         Standard orientation:                         
 ---------------------------------------------------------------------
 Center     Atomic      Atomic             Coordinates (Angstroms)
 Number     Number       Type             X           Y           Z
 ---------------------------------------------------------------------
      1          6           0       -1.931652    0.126863   -0.177795
      2          6           0        1.924587   -0.124634   -0.190303
      3          6           0       -0.584864   -0.494673    0.209626
      4          6           0        0.582392    0.497596    0.209762
      5          1           0       -2.153161    1.012999    0.418359
      6          1           0       -2.739953   -0.596713   -0.089204
      7          1           0       -1.881086    0.464495   -1.216957
      8          1           0        2.680566    0.638872   -0.386352
      9          1           0        2.310873   -0.756751    0.613974
     10          1           0        1.827681   -0.745044   -1.080750
     11          1           0       -0.376999   -1.296477   -0.509769
     12          1           0       -0.662060   -0.995133    1.179443
     13          1           0        0.354325    1.337013   -0.453119
     14          1           0        0.697035    0.905828    1.216633
 ---------------------------------------------------------------------
 Rotational constants (GHZ):     21.6177290      3.6355056      3.4815072
 Leave Link  202 at Tue May  8 09:22:12 2018, MaxMem=  671088640 cpu:       0.7
 (Enter /shared/apps/gaussian/G09_LINUX_LINDA/g09/l301.exe)
 Standard basis: 6-311+G(2df,2p) (5D, 7F)
 Ernie: Thresh=  0.10000D-02 Tol=  0.10000D-05 Strict=F.
 There are   226 symmetry adapted basis functions of A   symmetry.
 Integral buffers will be    131072 words long.
 Raffenetti 2 integral format.
 Two-electron integral symmetry is turned on.
   226 basis functions,   318 primitive gaussians,   246 cartesian basis functions
    17 alpha electrons       17 beta electrons
       nuclear repulsion energy       130.4802083482 Hartrees.
 IExCor= 4336 DFT=T Ex+Corr=M062X ExCW=0 ScaHFX=  0.540000
 ScaDFX=  1.000000  1.000000  1.000000  1.000000 ScalE2=  1.000000  1.000000
 IRadAn=      0 IRanWt=     -1 IRanGd=            0 ICorTp=0
 NAtoms=   14 NActive=   14 NUniq=   14 SFac= 1.00D+00 NAtFMM=   50 NAOKFM=F Big=F
 Leave Link  301 at Tue May  8 09:22:13 2018, MaxMem=  671088640 cpu:       1.0
 (Enter /shared/apps/gaussian/G09_LINUX_LINDA/g09/l302.exe)
 NPDir=0 NMtPBC=     1 NCelOv=     1 NCel=       1 NClECP=     1 NCelD=      1
         NCelK=      1 NCelE2=     1 NClLst=     1 CellRange=     0.0.
 One-electron integrals computed using PRISM.
 NBasis=   226 RedAO= T  NBF=   226
 NBsUse=   226 1.00D-06 NBFU=   226
 Precomputing XC quadrature grid using
 IXCGrd= 2 IRadAn=           0 IRanWt=          -1 IRanGd=           0 AccXCQ= 0.00D+00.
 NRdTot=     900 NPtTot=      114156 NUsed=      120651 NTot=      120683
 NSgBfM=   246   246   246   246   246 NAtAll=    14    14.
 Leave Link  302 at Tue May  8 09:22:14 2018, MaxMem=  671088640 cpu:      12.5
 (Enter /shared/apps/gaussian/G09_LINUX_LINDA/g09/l303.exe)
 DipDrv:  MaxL=1.
 Leave Link  303 at Tue May  8 09:22:14 2018, MaxMem=  671088640 cpu:       2.9
 (Enter /shared/apps/gaussian/G09_LINUX_LINDA/g09/l401.exe)
 Initial guess read from the read-write file.
 B after Tr=     0.000000    0.000000    0.000000
         Rot=    1.000000    0.000000    0.000000    0.000000 Ang=   0.00 deg.
 Guess basis will be translated and rotated to current coordinates.
 Initial guess orbital symmetries:
       Occupied  (A) (A) (A) (A) (A) (A) (A) (A) (A) (A) (A) (A)
                 (A) (A) (A) (A) (A)
       Virtual   (A) (A) (A) (A) (A) (A) (A) (A) (A) (A) (A) (A)
                 (A) (A) (A) (A) (A) (A) (A) (A) (A) (A) (A) (A)
                 (A) (A) (A) (A) (A) (A) (A) (A) (A) (A) (A) (A)
                 (A) (A) (A) (A) (A) (A) (A) (A) (A) (A) (A) (A)
                 (A) (A) (A) (A) (A) (A) (A) (A) (A) (A) (A) (A)
                 (A) (A) (A) (A) (A) (A) (A) (A) (A) (A) (A) (A)
                 (A) (A) (A) (A) (A) (A) (A) (A) (A) (A) (A) (A)
                 (A) (A) (A) (A) (A) (A) (A) (A) (A) (A) (A) (A)
                 (A) (A) (A) (A) (A) (A) (A) (A) (A) (A) (A) (A)
                 (A) (A) (A) (A) (A) (A) (A) (A) (A) (A) (A) (A)
                 (A) (A) (A) (A) (A) (A) (A) (A) (A) (A) (A) (A)
                 (A) (A) (A) (A) (A) (A) (A) (A) (A) (A) (A) (A)
                 (A) (A) (A) (A) (A) (A) (A) (A) (A) (A) (A) (A)
                 (A) (A) (A) (A) (A) (A) (A) (A) (A) (A) (A) (A)
                 (A) (A) (A) (A) (A) (A) (A) (A) (A) (A) (A) (A)
                 (A) (A) (A) (A) (A) (A) (A) (A) (A) (A) (A) (A)
                 (A) (A) (A) (A) (A) (A) (A) (A) (A) (A) (A) (A)
                 (A) (A) (A) (A) (A)
 The electronic state of the initial guess is 1-A.
 Generating alternative initial guess.
 Harris functional with IExCor= 1009 diagonalized for initial guess.
 ExpMin= 4.38D-02 ExpMax= 4.56D+03 ExpMxC= 6.82D+02 IAcc=2 IRadAn=         0 AccDes= 0.00D+00
 HarFok:  IExCor= 1009 AccDes= 0.00D+00 IRadAn=         0 IDoV= 1
 ScaDFX=  1.000000  1.000000  1.000000  1.000000
 FoFCou: FMM=F IPFlag=           0 FMFlag=      100000 FMFlg1=           0
         NFxFlg=           0 DoJE=T BraDBF=F KetDBF=T FulRan=T
         Omega=  0.000000  0.000000  1.000000  0.000000  0.000000 ICntrl=     500 IOpCl=  0
         NMat0=    1 NMatS0=    1 NMatT0=    0 NMatD0=    1 NMtDS0=    0 NMtDT0=    0
         I1Cent=           4 NGrid=           0.
 Petite list used in FoFCou.
 Harris En= -158.424894154849    
 Leave Link  401 at Tue May  8 09:22:20 2018, MaxMem=  671088640 cpu:      52.6
 (Enter /shared/apps/gaussian/G09_LINUX_LINDA/g09/l502.exe)
 Closed shell SCF:
 Requested convergence on RMS density matrix=1.00D-08 within 128 cycles.
 Requested convergence on MAX density matrix=1.00D-06.
 Requested convergence on             energy=1.00D-06.
 No special actions if energy rises.
 Using DIIS extrapolation, IDIIS=  1040.
 Integral symmetry usage will be decided dynamically.
       120512 words used for storage of precomputed grid.
 Keep R1 ints in memory in canonical form, NReq=469379211.
 IEnd=      326938 IEndB=      326938 NGot=   671088640 MDV=   209321306
 LenX=   209321306 LenY=   209260349
 Symmetry not used in FoFDir.
 MinBra= 0 MaxBra= 3 Meth= 1.
 IRaf=       0 NMat=   1 IRICut=       1 DoRegI=T DoRafI=F ISym2E= 0 JSym2E=0.

 Cycle   1  Pass 1  IDiag  1:
 E= -158.405791865910    
 DIIS: error= 3.30D-03 at cycle   1 NSaved=   1.
 NSaved= 1 IEnMin= 1 EnMin= -158.405791865910     IErMin= 1 ErrMin= 3.30D-03
 ErrMax= 3.30D-03 EMaxC= 1.00D-01 BMatC= 2.83D-03 BMatP= 2.83D-03
 IDIUse=3 WtCom= 9.67D-01 WtEn= 3.30D-02
 Coeff-Com:  0.100D+01
 Coeff-En:   0.100D+01
 Coeff:      0.100D+01
 Gap=     0.419 Goal=   None    Shift=    0.000
 GapD=    0.419 DampG=2.000 DampE=1.000 DampFc=2.0000 IDamp=-1.
 RMSDP=4.04D-04 MaxDP=9.73D-03              OVMax= 1.53D-02

 Cycle   2  Pass 1  IDiag  1:
 E= -158.408883875283     Delta-E=       -0.003092009373 Rises=F Damp=F
 DIIS: error= 7.24D-04 at cycle   2 NSaved=   2.
 NSaved= 2 IEnMin= 2 EnMin= -158.408883875283     IErMin= 2 ErrMin= 7.24D-04
 ErrMax= 7.24D-04 EMaxC= 1.00D-01 BMatC= 1.53D-04 BMatP= 2.83D-03
 IDIUse=3 WtCom= 9.93D-01 WtEn= 7.24D-03
 Coeff-Com:  0.256D-01 0.974D+00
 Coeff-En:   0.000D+00 0.100D+01
 Coeff:      0.255D-01 0.975D+00
 Gap=     0.395 Goal=   None    Shift=    0.000
 RMSDP=7.84D-05 MaxDP=3.34D-03 DE=-3.09D-03 OVMax= 3.68D-03

 Cycle   3  Pass 1  IDiag  1:
 E= -158.409010999233     Delta-E=       -0.000127123950 Rises=F Damp=F
 DIIS: error= 4.48D-04 at cycle   3 NSaved=   3.
 NSaved= 3 IEnMin= 3 EnMin= -158.409010999233     IErMin= 3 ErrMin= 4.48D-04
 ErrMax= 4.48D-04 EMaxC= 1.00D-01 BMatC= 5.60D-05 BMatP= 1.53D-04
 IDIUse=3 WtCom= 9.96D-01 WtEn= 4.48D-03
 Coeff-Com: -0.335D-01 0.363D+00 0.671D+00
 Coeff-En:   0.000D+00 0.000D+00 0.100D+01
 Coeff:     -0.333D-01 0.361D+00 0.672D+00
 Gap=     0.396 Goal=   None    Shift=    0.000
 RMSDP=2.63D-05 MaxDP=1.48D-03 DE=-1.27D-04 OVMax= 1.66D-03

 Cycle   4  Pass 1  IDiag  1:
 E= -158.409065504172     Delta-E=       -0.000054504939 Rises=F Damp=F
 DIIS: error= 1.09D-04 at cycle   4 NSaved=   4.
 NSaved= 4 IEnMin= 4 EnMin= -158.409065504172     IErMin= 4 ErrMin= 1.09D-04
 ErrMax= 1.09D-04 EMaxC= 1.00D-01 BMatC= 2.19D-06 BMatP= 5.60D-05
 IDIUse=3 WtCom= 9.99D-01 WtEn= 1.09D-03
 Coeff-Com: -0.938D-02 0.128D-01 0.166D+00 0.830D+00
 Coeff-En:   0.000D+00 0.000D+00 0.000D+00 0.100D+01
 Coeff:     -0.937D-02 0.128D-01 0.166D+00 0.830D+00
 Gap=     0.396 Goal=   None    Shift=    0.000
 RMSDP=7.57D-06 MaxDP=2.71D-04 DE=-5.45D-05 OVMax= 3.54D-04

 Cycle   5  Pass 1  IDiag  1:
 E= -158.409067919855     Delta-E=       -0.000002415684 Rises=F Damp=F
 DIIS: error= 1.51D-05 at cycle   5 NSaved=   5.
 NSaved= 5 IEnMin= 5 EnMin= -158.409067919855     IErMin= 5 ErrMin= 1.51D-05
 ErrMax= 1.51D-05 EMaxC= 1.00D-01 BMatC= 5.52D-08 BMatP= 2.19D-06
 IDIUse=1 WtCom= 1.00D+00 WtEn= 0.00D+00
 Coeff-Com:  0.172D-03-0.166D-01-0.914D-02 0.115D+00 0.911D+00
 Coeff:      0.172D-03-0.166D-01-0.914D-02 0.115D+00 0.911D+00
 Gap=     0.396 Goal=   None    Shift=    0.000
 RMSDP=1.97D-06 MaxDP=4.21D-05 DE=-2.42D-06 OVMax= 9.02D-05

 Cycle   6  Pass 1  IDiag  1:
 E= -158.409067996252     Delta-E=       -0.000000076397 Rises=F Damp=F
 DIIS: error= 5.14D-06 at cycle   6 NSaved=   6.
 NSaved= 6 IEnMin= 6 EnMin= -158.409067996252     IErMin= 6 ErrMin= 5.14D-06
 ErrMax= 5.14D-06 EMaxC= 1.00D-01 BMatC= 4.42D-09 BMatP= 5.52D-08
 IDIUse=1 WtCom= 1.00D+00 WtEn= 0.00D+00
 Coeff-Com:  0.389D-03-0.528D-02-0.915D-02-0.110D-02 0.261D+00 0.754D+00
 Coeff:      0.389D-03-0.528D-02-0.915D-02-0.110D-02 0.261D+00 0.754D+00
 Gap=     0.396 Goal=   None    Shift=    0.000
 RMSDP=4.20D-07 MaxDP=9.07D-06 DE=-7.64D-08 OVMax= 2.01D-05

 Cycle   7  Pass 1  IDiag  1:
 E= -158.409068001259     Delta-E=       -0.000000005006 Rises=F Damp=F
 DIIS: error= 1.30D-06 at cycle   7 NSaved=   7.
 NSaved= 7 IEnMin= 7 EnMin= -158.409068001259     IErMin= 7 ErrMin= 1.30D-06
 ErrMax= 1.30D-06 EMaxC= 1.00D-01 BMatC= 3.13D-10 BMatP= 4.42D-09
 IDIUse=1 WtCom= 1.00D+00 WtEn= 0.00D+00
 Coeff-Com:  0.959D-04-0.494D-03-0.206D-02-0.748D-02 0.219D-01 0.223D+00
 Coeff-Com:  0.765D+00
 Coeff:      0.959D-04-0.494D-03-0.206D-02-0.748D-02 0.219D-01 0.223D+00
 Coeff:      0.765D+00
 Gap=     0.396 Goal=   None    Shift=    0.000
 RMSDP=1.16D-07 MaxDP=3.14D-06 DE=-5.01D-09 OVMax= 5.06D-06

 Cycle   8  Pass 1  IDiag  1:
 E= -158.409068001568     Delta-E=       -0.000000000309 Rises=F Damp=F
 DIIS: error= 4.46D-07 at cycle   8 NSaved=   8.
 NSaved= 8 IEnMin= 8 EnMin= -158.409068001568     IErMin= 8 ErrMin= 4.46D-07
 ErrMax= 4.46D-07 EMaxC= 1.00D-01 BMatC= 3.73D-11 BMatP= 3.13D-10
 IDIUse=1 WtCom= 1.00D+00 WtEn= 0.00D+00
 Coeff-Com: -0.134D-05 0.337D-03 0.111D-03-0.281D-02-0.174D-01 0.130D-01
 Coeff-Com:  0.288D+00 0.719D+00
 Coeff:     -0.134D-05 0.337D-03 0.111D-03-0.281D-02-0.174D-01 0.130D-01
 Coeff:      0.288D+00 0.719D+00
 Gap=     0.396 Goal=   None    Shift=    0.000
 RMSDP=3.73D-08 MaxDP=1.23D-06 DE=-3.09D-10 OVMax= 1.66D-06

 Cycle   9  Pass 1  IDiag  1:
 E= -158.409068001610     Delta-E=       -0.000000000042 Rises=F Damp=F
 DIIS: error= 4.63D-08 at cycle   9 NSaved=   9.
 NSaved= 9 IEnMin= 9 EnMin= -158.409068001610     IErMin= 9 ErrMin= 4.63D-08
 ErrMax= 4.63D-08 EMaxC= 1.00D-01 BMatC= 3.72D-13 BMatP= 3.73D-11
 IDIUse=1 WtCom= 1.00D+00 WtEn= 0.00D+00
 Coeff-Com: -0.409D-05 0.647D-04 0.979D-04-0.468D-04-0.329D-02-0.693D-02
 Coeff-Com:  0.720D-02 0.913D-01 0.912D+00
 Coeff:     -0.409D-05 0.647D-04 0.979D-04-0.468D-04-0.329D-02-0.693D-02
 Coeff:      0.720D-02 0.913D-01 0.912D+00
 Gap=     0.396 Goal=   None    Shift=    0.000
 RMSDP=9.25D-09 MaxDP=2.88D-07 DE=-4.16D-11 OVMax= 2.63D-07

 SCF Done:  E(RM062X) =  -158.409068002     A.U. after    9 cycles
             Convg  =    0.9254D-08             -V/T =  2.0049
 KE= 1.576355994215D+02 PE=-6.270564419084D+02 EE= 1.805315661371D+02
 Leave Link  502 at Tue May  8 09:23:07 2018, MaxMem=  671088640 cpu:     467.2
 (Enter /shared/apps/gaussian/G09_LINUX_LINDA/g09/l701.exe)
 Compute integral first derivatives.
 ... and contract with generalized density number  0.
 Leave Link  701 at Tue May  8 09:23:09 2018, MaxMem=  671088640 cpu:      18.3
 (Enter /shared/apps/gaussian/G09_LINUX_LINDA/g09/l702.exe)
 L702 exits ... SP integral derivatives will be done elsewhere.
 Leave Link  702 at Tue May  8 09:23:09 2018, MaxMem=  671088640 cpu:       0.3
 (Enter /shared/apps/gaussian/G09_LINUX_LINDA/g09/l703.exe)
 Compute integral first derivatives, UseDBF=F ICtDFT=           0.
 Integral derivatives from FoFDir, PRISM(SPDF).
 Calling FoFJK, ICntrl=      2127 FMM=F ISym2X=0 I1Cent= 0 IOpClX= 0 NMat=1 NMatS=1 NMatT=0.
 FoFCou: FMM=F IPFlag=           0 FMFlag=      100000 FMFlg1=         800
         NFxFlg=           0 DoJE=F BraDBF=F KetDBF=F FulRan=T
         Omega=  0.000000  0.000000  1.000000  0.000000  0.000000 ICntrl=    2127 IOpCl=  0
         NMat0=    1 NMatS0=    1 NMatT0=    0 NMatD0=    1 NMtDS0=    0 NMtDT0=    0
         I1Cent=           0 NGrid=           0.
 Symmetry not used in FoFCou.
 Leave Link  703 at Tue May  8 09:23:19 2018, MaxMem=  671088640 cpu:      96.5
 (Enter /shared/apps/gaussian/G09_LINUX_LINDA/g09/l716.exe)
 Dipole        = 6.36150934D-03-9.87669129D-04 1.53710469D-02
 ***** Axes restored to original set *****
 -------------------------------------------------------------------
 Center     Atomic                   Forces (Hartrees/Bohr)
 Number     Number              X              Y              Z
 -------------------------------------------------------------------
      1        6          -0.007807873    0.004182930    0.001734325
      2        6          -0.000333251   -0.000702627   -0.003878439
      3        6           0.002078340   -0.005642817    0.005266805
      4        6          -0.003283801   -0.000770888   -0.001242532
      5        1           0.001379628   -0.002834304   -0.002354380
      6        1           0.001238444    0.001312991   -0.001221941
      7        1           0.001349636   -0.001654708   -0.000769956
      8        1           0.001487493   -0.000929469   -0.000353946
      9        1           0.001325495   -0.000405264    0.002030251
     10        1           0.000332653    0.001033981    0.000952957
     11        1          -0.000378815    0.001542212   -0.001472418
     12        1          -0.000145851    0.002154524    0.000001987
     13        1           0.000139618   -0.001362710    0.000498956
     14        1           0.002618284    0.004076151    0.000808331
 -------------------------------------------------------------------
 Cartesian Forces:  Max     0.007807873 RMS     0.002421405
 Leave Link  716 at Tue May  8 09:23:19 2018, MaxMem=  671088640 cpu:       0.3
 (Enter /shared/apps/gaussian/G09_LINUX_LINDA/g09/l103.exe)

 GradGradGradGradGradGradGradGradGradGradGradGradGradGradGradGradGradGrad
 Berny optimization.
 Using GDIIS optimizer.
 Internal  Forces:  Max     0.003575575 RMS     0.001398761
 Search for a local minimum.
 Step number   2 out of a maximum of   74
 All quantities printed in internal units (Hartrees-Bohrs-Radians)
 Swaping is turned off.
 Update second derivatives using D2CorX and points    1    2
 DE= -7.74D-03 DEPred=-8.21D-03 R= 9.43D-01
 SS=  1.41D+00  RLast= 3.00D-01 DXNew= 5.0454D-01 9.0005D-01
 Trust test= 9.43D-01 RLast= 3.00D-01 DXMaxT set to 5.05D-01
 ITU=  1  0
     Eigenvalues ---    0.00540   0.00591   0.00763   0.03576   0.03661
     Eigenvalues ---    0.04980   0.05173   0.05399   0.05510   0.05672
     Eigenvalues ---    0.05937   0.08616   0.08746   0.12417   0.12518
     Eigenvalues ---    0.15602   0.16000   0.16000   0.16000   0.16000
     Eigenvalues ---    0.16282   0.21840   0.22790   0.30006   0.30779
     Eigenvalues ---    0.31637   0.31647   0.31683   0.31799   0.31883
     Eigenvalues ---    0.32036   0.33024   0.33320   0.33558   0.33684
     Eigenvalues ---    0.35378
 DIIS coeff's:      1.13155     -0.13155
 Cosine:  1.000 >  0.970
 Length:  1.000
 GDIIS step was calculated using  2 of the last  2 vectors.
 Iteration  1 RMS(Cart)=  0.08075279 RMS(Int)=  0.00299593
 Iteration  2 RMS(Cart)=  0.00402758 RMS(Int)=  0.00019899
 Iteration  3 RMS(Cart)=  0.00000788 RMS(Int)=  0.00019889
 Iteration  4 RMS(Cart)=  0.00000000 RMS(Int)=  0.00019889
 Variable       Old X    -DE/DX   Delta X   Delta X   Delta X     New X
                                  (DIIS)     (GDIIS)  (Total)
    R1        2.89704  -0.00358   0.00492  -0.01654  -0.01162   2.88543
    R2        2.06119   0.00017  -0.00353   0.00307  -0.00047   2.06072
    R3        2.05691  -0.00021  -0.00354   0.00179  -0.00175   2.05516
    R4        2.06699  -0.00144  -0.00630  -0.00067  -0.00697   2.06002
    R5        2.89610  -0.00274   0.00379  -0.01283  -0.00903   2.88706
    R6        2.06394  -0.00166  -0.00619  -0.00150  -0.00768   2.05626
    R7        2.06634  -0.00153  -0.00627  -0.00101  -0.00728   2.05906
    R8        2.05902   0.00049  -0.00267   0.00351   0.00084   2.05986
    R9        2.89510  -0.00077   0.00796  -0.00832  -0.00036   2.89474
   R10        2.07322  -0.00195  -0.00547  -0.00308  -0.00855   2.06467
   R11        2.06747  -0.00136  -0.00627  -0.00041  -0.00669   2.06079
   R12        2.06668  -0.00089  -0.00563   0.00082  -0.00481   2.06187
   R13        2.06455  -0.00032  -0.00184   0.00023  -0.00161   2.06295
    A1        1.94944  -0.00091  -0.00232  -0.00702  -0.00949   1.93995
    A2        1.94153   0.00143   0.00900  -0.00482   0.00385   1.94538
    A3        1.90141   0.00208   0.00815   0.01824   0.02603   1.92744
    A4        1.92280  -0.00217  -0.00856  -0.02599  -0.03468   1.88812
    A5        1.85237   0.00097   0.00055   0.02187   0.02227   1.87464
    A6        1.89321  -0.00139  -0.00662  -0.00021  -0.00733   1.88587
    A7        1.94897  -0.00087   0.00427  -0.00950  -0.00534   1.94364
    A8        1.93060   0.00078   0.00458   0.00510   0.00964   1.94024
    A9        1.94618  -0.00074  -0.00316  -0.00606  -0.00922   1.93695
   A10        1.86672   0.00074  -0.00182   0.01322   0.01126   1.87798
   A11        1.88905   0.00026  -0.00215  -0.00235  -0.00457   1.88449
   A12        1.87901  -0.00010  -0.00187   0.00056  -0.00125   1.87776
   A13        1.98971  -0.00345   0.00186  -0.02390  -0.02256   1.96715
   A14        1.87239   0.00284   0.00374   0.03166   0.03549   1.90787
   A15        1.92568   0.00003  -0.00329  -0.01366  -0.01769   1.90799
   A16        1.90610   0.00023   0.00280   0.00538   0.00830   1.91441
   A17        1.92832   0.00072  -0.00441  -0.00993  -0.01511   1.91321
   A18        1.83415  -0.00003  -0.00025   0.01532   0.01533   1.84948
   A19        1.98699  -0.00255   0.00650  -0.01540  -0.00902   1.97797
   A20        1.91351   0.00099   0.00089   0.00125   0.00213   1.91563
   A21        1.87590   0.00200  -0.00041   0.02456   0.02399   1.89989
   A22        1.91579   0.00039  -0.00478  -0.00336  -0.00819   1.90760
   A23        1.89869   0.00062   0.00212   0.00623   0.00821   1.90690
   A24        1.86888  -0.00138  -0.00461  -0.01271  -0.01733   1.85155
    D1       -0.90863  -0.00110  -0.00003  -0.04478  -0.04498  -0.95361
    D2       -3.02130  -0.00123  -0.00710  -0.05888  -0.06600  -3.08730
    D3        1.27300  -0.00275  -0.00725  -0.08727  -0.09435   1.17865
    D4       -3.06508   0.00133   0.00601  -0.00231   0.00365  -3.06144
    D5        1.10543   0.00121  -0.00106  -0.01640  -0.01738   1.08805
    D6       -0.88346  -0.00032  -0.00120  -0.04480  -0.04572  -0.92918
    D7        1.13198   0.00084   0.00431  -0.01078  -0.00672   1.12526
    D8       -0.98069   0.00072  -0.00276  -0.02488  -0.02775  -1.00844
    D9       -2.96958  -0.00081  -0.00291  -0.05327  -0.05609  -3.02567
   D10        2.92889  -0.00025  -0.00016   0.10464   0.10446   3.03335
   D11        0.77539   0.00032   0.00081   0.11915   0.11992   0.89531
   D12       -1.25021   0.00033   0.00604   0.12001   0.12605  -1.12417
   D13       -1.27744   0.00063   0.00306   0.11847   0.12158  -1.15586
   D14        2.85224   0.00120   0.00403   0.13297   0.13704   2.98928
   D15        0.82663   0.00121   0.00926   0.13384   0.14317   0.96980
   D16        0.81304   0.00055   0.00176   0.11859   0.12032   0.93336
   D17       -1.34046   0.00111   0.00273   0.13310   0.13578  -1.20468
   D18        2.91712   0.00113   0.00796   0.13396   0.14191   3.05903
   D19       -2.57187  -0.00154  -0.00792  -0.12600  -0.13376  -2.70563
   D20       -0.41961  -0.00178  -0.00561  -0.13803  -0.14353  -0.56313
   D21        1.62007  -0.00287  -0.01272  -0.15163  -0.16426   1.45581
   D22       -0.47806  -0.00002  -0.00018  -0.09745  -0.09756  -0.57562
   D23        1.67420  -0.00026   0.00213  -0.10948  -0.10732   1.56688
   D24       -2.56931  -0.00135  -0.00498  -0.12308  -0.12805  -2.69736
   D25        1.53110   0.00048  -0.00129  -0.08145  -0.08286   1.44824
   D26       -2.59982   0.00024   0.00102  -0.09348  -0.09262  -2.69245
   D27       -0.56015  -0.00085  -0.00608  -0.10708  -0.11335  -0.67350
         Item               Value     Threshold  Converged?
 Maximum Force            0.003576     0.000002     NO 
 RMS     Force            0.001399     0.000001     NO 
 Maximum Displacement     0.268051     0.000006     NO 
 RMS     Displacement     0.080996     0.000004     NO 
 Predicted change in Energy=-1.506643D-03
 GradGradGradGradGradGradGradGradGradGradGradGradGradGradGradGradGradGrad

 Leave Link  103 at Tue May  8 09:23:23 2018, MaxMem=  671088640 cpu:      41.9
 (Enter /shared/apps/gaussian/G09_LINUX_LINDA/g09/l202.exe)
                          Input orientation:                          
 ---------------------------------------------------------------------
 Center     Atomic      Atomic             Coordinates (Angstroms)
 Number     Number       Type             X           Y           Z
 ---------------------------------------------------------------------
      1          6           0        1.936241   -0.071131    0.029655
      2          6           0       -1.922741    0.125562    0.221253
      3          6           0        0.508530   -0.598262   -0.093658
      4          6           0       -0.524275    0.522339   -0.248789
      5          1           0        2.188833    0.580340   -0.807571
      6          1           0        2.659160   -0.883129    0.057907
      7          1           0        2.048650    0.513181    0.943055
      8          1           0       -2.603868    0.973850    0.199122
      9          1           0       -2.345123   -0.652771   -0.413594
     10          1           0       -1.897296   -0.258852    1.240931
     11          1           0        0.268607   -1.200814    0.785596
     12          1           0        0.446045   -1.274499   -0.946908
     13          1           0       -0.186494    1.402570    0.300376
     14          1           0       -0.576170    0.821515   -1.297374
 ---------------------------------------------------------------------
                    Distance matrix (angstroms):
                    1          2          3          4          5
     1  C    0.000000
     2  C    3.868739   0.000000
     3  C    1.526903   2.556202   0.000000
     4  C    2.546346   1.527769   1.531828   0.000000
     5  H    1.090488   4.262668   2.173060   2.770659   0.000000
     6  H    1.087543   4.694460   2.174702   3.493374   1.764086
     7  H    1.090117   4.055021   2.163804   2.835581   1.757513
     8  H    4.661898   1.088125   3.499182   2.174671   4.913070
     9  H    4.343369   1.089606   2.872049   2.173369   4.715139
    10  H    4.024728   1.090030   2.772061   2.171339   4.647262
    11  H    2.151426   2.622930   1.092575   2.160526   3.065608
    12  H    2.149990   2.989300   1.090521   2.158128   2.548951
    13  H    2.598286   2.156748   2.154448   1.091093   2.746960
    14  H    2.978260   2.145654   2.154361   1.091664   2.818388
                    6          7          8          9         10
     6  H    0.000000
     7  H    1.762353   0.000000
     8  H    5.582810   4.734087   0.000000
     9  H    5.031722   4.743963   1.757346   0.000000
    10  H    4.748742   4.031781   1.761864   1.758742   0.000000
    11  H    2.518967   2.476111   3.650236   2.927455   2.405360
    12  H    2.461850   3.055504   3.958588   2.908881   3.362948
    13  H    3.657999   2.489964   2.457183   3.064940   2.563554
    14  H    3.899995   3.464718   2.524731   2.466533   3.058686
                   11         12         13         14
    11  H    0.000000
    12  H    1.743124   0.000000
    13  H    2.687036   3.020351   0.000000
    14  H    3.023612   2.358182   1.744212   0.000000
 Stoichiometry    C4H10
 Framework group  C1[X(C4H10)]
 Deg. of freedom    36
 Full point group                 C1      NOp   1
 Largest Abelian subgroup         C1      NOp   1
 Largest concise Abelian subgroup C1      NOp   1
                         Standard orientation:                         
 ---------------------------------------------------------------------
 Center     Atomic      Atomic             Coordinates (Angstroms)
 Number     Number       Type             X           Y           Z
 ---------------------------------------------------------------------
      1          6           0       -1.928829    0.127434   -0.142245
      2          6           0        1.931968   -0.120334   -0.144121
      3          6           0       -0.575676   -0.512361    0.159536
      4          6           0        0.571205    0.503098    0.162038
      5          1           0       -2.136523    0.950241    0.542602
      6          1           0       -2.737689   -0.594882   -0.060054
      7          1           0       -1.940485    0.534034   -1.153628
      8          1           0        2.703678    0.640583   -0.241504
      9          1           0        2.239626   -0.802102    0.648204
     10          1           0        1.900637   -0.688531   -1.073818
     11          1           0       -0.373460   -1.294177   -0.576393
     12          1           0       -0.621802   -1.014999    1.126213
     13          1           0        0.355952    1.291913   -0.560402
     14          1           0        0.618059    0.990903    1.137529
 ---------------------------------------------------------------------
 Rotational constants (GHZ):     22.2869043      3.6617340      3.4750812
[...]
 ITU=  0
     Eigenvalues ---    0.00079   0.00188   0.00240   0.03043   0.03690
     Eigenvalues ---    0.03837   0.03867   0.04414   0.04442   0.04505
     Eigenvalues ---    0.04514   0.06728   0.07057   0.09402   0.11859
     Eigenvalues ---    0.11982   0.11986   0.12488   0.13545   0.15486
     Eigenvalues ---    0.15703   0.17667   0.22810   0.29260   0.30214
     Eigenvalues ---    0.31608   0.32478   0.32649   0.33340   0.33375
     Eigenvalues ---    0.33402   0.33581   0.33600   0.33874   0.34357
     Eigenvalues ---    0.34523
 Angle between quadratic step and forces=  79.98 degrees.
 Linear search not attempted -- option 19 set.
 Iteration  1 RMS(Cart)=  0.00000269 RMS(Int)=  0.00000000
 Iteration  2 RMS(Cart)=  0.00000000 RMS(Int)=  0.00000000
 Variable       Old X    -DE/DX   Delta X   Delta X   Delta X     New X
                                 (Linear)    (Quad)   (Total)
    R1        2.87941   0.00000   0.00000   0.00000   0.00000   2.87941
    R2        2.06180   0.00000   0.00000   0.00000   0.00000   2.06180
    R3        2.05898   0.00000   0.00000   0.00000   0.00000   2.05898
    R4        2.06180   0.00000   0.00000   0.00000   0.00000   2.06180
    R5        2.87941   0.00000   0.00000   0.00000   0.00000   2.87941
    R6        2.05898   0.00000   0.00000   0.00000   0.00000   2.05898
    R7        2.06180   0.00000   0.00000   0.00000   0.00000   2.06180
    R8        2.06180   0.00000   0.00000   0.00000   0.00000   2.06180
    R9        2.88035   0.00000   0.00000   0.00000   0.00000   2.88035
   R10        2.06653   0.00000   0.00000   0.00000   0.00000   2.06653
   R11        2.06653   0.00000   0.00000   0.00000   0.00000   2.06653
   R12        2.06653   0.00000   0.00000   0.00000   0.00000   2.06653
   R13        2.06653   0.00000   0.00000   0.00000   0.00000   2.06653
    A1        1.93418   0.00000   0.00000   0.00000   0.00000   1.93418
    A2        1.94973   0.00000   0.00000   0.00000   0.00000   1.94973
    A3        1.93418   0.00000   0.00000   0.00000   0.00000   1.93418
    A4        1.88266   0.00000   0.00000   0.00000   0.00000   1.88266
    A5        1.87774   0.00000   0.00000   0.00000   0.00000   1.87774
    A6        1.88266   0.00000   0.00000   0.00000   0.00000   1.88266
    A7        1.94973   0.00000   0.00000   0.00000   0.00000   1.94973
    A8        1.93418   0.00000   0.00000   0.00000   0.00000   1.93418
    A9        1.93418   0.00000   0.00000   0.00000   0.00000   1.93418
   A10        1.88266   0.00000   0.00000   0.00000   0.00000   1.88266
   A11        1.88266   0.00000   0.00000   0.00000   0.00000   1.88266
   A12        1.87774   0.00000   0.00000   0.00000   0.00000   1.87774
   A13        1.96737   0.00000   0.00000   0.00000   0.00000   1.96737
   A14        1.91537   0.00000   0.00000   0.00000   0.00000   1.91537
   A15        1.91537   0.00000   0.00000   0.00000   0.00000   1.91537
   A16        1.90436   0.00000   0.00000   0.00000   0.00000   1.90436
   A17        1.90436   0.00000   0.00000   0.00000   0.00000   1.90436
   A18        1.85349   0.00000   0.00000   0.00000   0.00000   1.85349
   A19        1.96736   0.00000   0.00000   0.00000   0.00000   1.96736
   A20        1.91537   0.00000   0.00000   0.00000   0.00000   1.91537
   A21        1.91537   0.00000   0.00000   0.00000   0.00000   1.91537
   A22        1.90436   0.00000   0.00000   0.00000   0.00000   1.90436
   A23        1.90436   0.00000   0.00000   0.00000   0.00000   1.90436
   A24        1.85349   0.00000   0.00000   0.00000   0.00000   1.85349
    D1       -1.04170   0.00000   0.00000   0.00000   0.00000  -1.04170
    D2        3.11514   0.00000   0.00000   0.00000   0.00000   3.11514
    D3        1.08464   0.00000   0.00000   0.00000   0.00000   1.08465
    D4        3.14159   0.00000   0.00000   0.00000   0.00000   3.14159
    D5        1.01524   0.00000   0.00000   0.00000   0.00000   1.01525
    D6       -1.01525   0.00000   0.00000   0.00000   0.00000  -1.01525
    D7        1.04170   0.00000   0.00000   0.00000   0.00000   1.04170
    D8       -1.08465   0.00000   0.00000   0.00000   0.00000  -1.08465
    D9       -3.11514   0.00000   0.00000   0.00000   0.00000  -3.11514
   D10        3.14159   0.00000   0.00000   0.00000   0.00000  -3.14159
   D11        1.01524   0.00000   0.00000   0.00000   0.00000   1.01525
   D12       -1.01525   0.00000   0.00000   0.00000   0.00000  -1.01525
   D13       -1.04170   0.00000   0.00000   0.00000   0.00000  -1.04170
   D14        3.11514   0.00000   0.00000   0.00000   0.00000   3.11514
   D15        1.08464   0.00000   0.00000   0.00000   0.00000   1.08465
   D16        1.04170   0.00000   0.00000   0.00000   0.00000   1.04170
   D17       -1.08465   0.00000   0.00000   0.00000   0.00000  -1.08465
   D18       -3.11514   0.00000   0.00000   0.00000   0.00000  -3.11514
   D19        3.14159   0.00000   0.00000   0.00000   0.00000  -3.14159
   D20       -1.00904   0.00000   0.00000   0.00000   0.00000  -1.00903
   D21        1.00903   0.00000   0.00000   0.00000   0.00000   1.00903
   D22       -1.00903   0.00000   0.00000   0.00000   0.00000  -1.00903
   D23        1.12352   0.00000   0.00000   0.00000   0.00000   1.12353
   D24        3.14159   0.00000   0.00000   0.00000   0.00000  -3.14159
   D25        1.00903   0.00000   0.00000   0.00000   0.00000   1.00903
   D26        3.14159   0.00000   0.00000   0.00000   0.00000  -3.14159
   D27       -1.12353   0.00000   0.00000   0.00000   0.00000  -1.12353
         Item               Value     Threshold  Converged?
 Maximum Force            0.000000     0.000002     YES
 RMS     Force            0.000000     0.000001     YES
 Maximum Displacement     0.000008     0.000006     NO 
 RMS     Displacement     0.000003     0.000004     YES
 Predicted change in Energy=-2.207843D-13
 GradGradGradGradGradGradGradGradGradGradGradGradGradGradGradGradGradGrad

 Leave Link  103 at Tue May  8 09:44:02 2018, MaxMem=  671088640 cpu:      28.7
 (Enter /shared/apps/gaussian/G09_LINUX_LINDA/g09/l9999.exe)

 Test job not archived.
 1\1\GINC-COMPUTE-3-045\Freq\RM062X\6-311+G(2df,2p)\C4H10\ROOT\08-May-2
 018\0\\#P Geom=AllCheck Guess=TCheck SCRF=Check Test GenChk RM062X/6-3
 11+G(2df,2p) Freq\\Gaussian input prepared by ASE\\0,1\C,1.944297646,-
 0.0933387896,-0.1052022911\C,-1.9442835242,0.0933241545,0.1009150597\C
 ,0.5053514661,-0.5673541907,0.0574684485\C,-0.5053370358,0.5673403433,
 -0.0617521356\H,2.0914176718,0.3717415631,-1.0811462975\H,2.652321652,
 -0.9168046525,-0.0171360474\H,2.1966783971,0.6478775456,0.6546089574\H
 ,-2.6523069611,0.9167911495,0.0128548962\H,-2.1966642011,-0.6478862927
 ,-0.6589018594\H,-2.0914036315,-0.3717632707,1.0768556492\H,0.38435374
 93,-1.0539730075,1.0292921502\H,0.2797946093,-1.3282611937,-0.69487748
 52\H,-0.2797820456,1.3282458523,0.6905957638\H,-0.3843377925,1.0539607
 89,-1.0335748087\\Version=EM64L-G09RevB.01\State=1-A\HF=-158.4136533\R
 MSD=1.527e-09\RMSF=8.153e-06\ZeroPoint=0.131536\Thermal=0.1375328\Dipo
 le=0.,0.,-0.0000002\DipoleDeriv=-0.0227277,-0.0028882,0.0072817,0.0225
 17,0.0648634,0.0025962,0.0032397,0.0041369,0.0889114,-0.022728,-0.0028
 884,0.0072812,0.0225168,0.0648633,0.0025961,0.0032399,0.0041367,0.0889
 116,0.0785688,0.0084103,0.0014998,-0.0018727,0.070988,0.0087639,0.0031
 356,0.0081404,0.1238803,0.078569,0.0084101,0.0015,-0.0018727,0.0709883
 ,0.0087643,0.0031359,0.0081406,0.1238801,0.0267916,-0.0048408,-0.01187
 12,-0.0415265,0.0214843,0.0742827,0.044703,0.0812676,-0.0990992,-0.085
 3955,0.0713559,-0.0019026,0.1120723,-0.0480543,0.0120516,-0.00838,0.01
 45207,0.0686198,0.0224056,-0.0140118,0.0033806,-0.0653007,-0.0347578,-
 0.0880077,-0.0391978,-0.1003276,-0.0384711,-0.0853954,0.0713558,-0.001
 9023,0.1120725,-0.0480546,0.0120508,-0.0083793,0.0145199,0.06862,0.022
 4055,-0.0140117,0.0033806,-0.0653004,-0.0347563,-0.0880077,-0.0391984,
 -0.1003276,-0.0384725,0.0267917,-0.0048407,-0.0118712,-0.041527,0.0214
 832,0.0742835,0.0447026,0.0812684,-0.0990981,-0.0056766,-0.0167471,0.0
 352212,-0.0029493,-0.0073889,0.0709629,0.0301201,0.1026941,-0.1059384,
 -0.0139663,-0.0412782,-0.0336095,-0.0229401,-0.067135,-0.0806497,-0.03
 36207,-0.1104321,-0.0379027,-0.0139662,-0.0412777,-0.0336096,-0.022939
 8,-0.0671346,-0.0806499,-0.0336208,-0.1104324,-0.0379032,-0.0056766,-0
 .0167475,0.0352213,-0.0029495,-0.0073892,0.070963,0.0301202,0.1026943,
 -0.1059381\Polar=58.5719501,-0.7069356,48.2020599,-0.6845478,-0.398254
 ,45.5340083\PG=C01 [X(C4H10)]\NImag=0\\0.49073974,-0.03263511,0.560294
 31,0.00957083,0.00240150,0.56198708,-0.00162761,0.00333961,-0.00045184
 ,0.49073934,0.00333962,-0.00502804,0.00054686,-0.03263527,0.56029436,-
 0.00045183,0.00054683,-0.00037713,0.00957062,0.00240149,0.56198738,-0.
 18712907,-0.04078532,0.01296962,-0.02836141,0.02559709,-0.00238630,0.4
 7235909,-0.03758411,-0.09421814,0.00450084,-0.00532246,0.01006814,-0.0
 0136852,0.02511774,0.53341075,0.01246034,0.00469494,-0.08175570,0.0025
 3245,-0.00324353,-0.00020092,0.00311273,0.00741215,0.58821102,-0.02836
 141,0.02559707,-0.00238636,-0.18712887,-0.04078531,0.01296930,-0.12207
 407,0.05665801,-0.00648733,0.47235879,-0.00532245,0.01006814,-0.001368
 53,-0.03758409,-0.09421816,0.00450071,0.05665801,-0.15140005,0.0078559
 3,0.02511759,0.53341076,0.00253246,-0.00324357,-0.00020091,0.01246004,
 0.00469487,-0.08175565,-0.00648732,0.00785592,-0.08127602,0.00311257,0
 .00741225,0.58821126,-0.04935626,-0.01239287,0.02789449,-0.00009827,-0
 .00004784,-0.00019165,-0.00509883,-0.01369305,0.03045250,0.00194930,-0
 .00102886,0.00112045,0.05514907,-0.01255396,-0.09371262,0.09868123,0.0
 0007456,0.00003574,-0.00017709,-0.00184284,-0.00561526,0.01036699,0.00
 056784,0.00040818,-0.00073081,0.01671229,0.09814968,0.02836660,0.09885
 186,-0.25796036,0.00006882,-0.00024281,0.00037979,0.00056003,0.0012827
 3,-0.00238363,-0.00046697,-0.00020617,0.00026750,-0.03220238,-0.109862
 82,0.27859360,-0.15455098,0.12934100,-0.01404708,-0.00082471,0.0019789
 9,-0.00022878,-0.01895508,0.02533032,-0.00296938,-0.00507750,-0.004670
 42,0.00106681,0.00263405,-0.00409475,-0.00024065,0.16989850,0.13011694
 ,-0.20192283,0.01677455,-0.00060212,0.00058060,0.00003867,-0.00893324,
 0.01062106,-0.00138184,-0.00170447,-0.00047627,0.00022088,0.00751539,-
 0.01016879,0.00002023,-0.14097274,0.21640910,-0.01417052,0.01682160,-0
 .04869745,0.00018183,-0.00011786,0.00060188,0.00248149,-0.00345967,-0.
 00107041,0.00059499,0.00040075,0.00016258,-0.01976717,0.02261592,-0.00
 145617,0.01489333,-0.01861359,0.04772683,-0.05795299,-0.03752262,-0.04
 007463,-0.00007863,0.00005507,0.00023734,-0.00837556,-0.02225020,-0.02
 379474,0.00185544,-0.00133100,-0.00095559,-0.00028179,0.00313389,0.002
 58685,0.00490051,0.01336923,0.01607228,0.06469762,-0.03780051,-0.16670
 497,-0.12405475,0.00008229,0.00019085,0.00022627,-0.00289531,-0.008274
 28,-0.00754855,0.00072842,0.00068276,0.00053156,0.00361751,0.01049951,
 0.01026271,-0.00628794,-0.01616329,-0.01757551,0.04464991,0.17901728,-
 0.04047690,-0.12425198,-0.17637133,-0.00004694,0.00030104,0.00020504,0
 .00113338,0.00342806,0.00355217,0.00005020,0.00022864,0.00008682,-0.00
 613606,-0.02059566,-0.01975997,0.00152000,0.00312405,0.00227188,0.0437
 8426,0.13710644,0.18817747,-0.00082471,0.00197899,-0.00022879,-0.15455
 078,0.12934109,-0.01404607,-0.00507751,-0.00467042,0.00106681,-0.01895
 509,0.02533036,-0.00296924,0.00001516,-0.00002394,0.00009246,-0.000734
 15,-0.00021415,0.00007901,0.00001565,-0.00004929,-0.00008497,0.1698983
 2,-0.00060212,0.00058060,0.00003867,0.13011703,-0.20192326,0.01677342,
 -0.00170447,-0.00047627,0.00022087,-0.00893325,0.01062108,-0.00138176,
 0.00006758,0.00002160,-0.00000396,-0.00021415,-0.00007487,0.00002600,0
 .00009614,0.00002666,-0.00001965,-0.14097283,0.21640955,0.00018183,-0.
 00011785,0.00060187,-0.01416950,0.01682048,-0.04869722,0.00059496,0.00
 040073,0.00016258,0.00248140,-0.00345958,-0.00107044,-0.00010771,-0.00
 002793,-0.00001447,0.00007901,0.00002600,-0.00000200,0.00007750,0.0000
 1868,-0.00002002,0.01489225,-0.01861235,0.04772657,-0.00007863,0.00005
 507,0.00023734,-0.05795297,-0.03752229,-0.04007496,0.00185543,-0.00133
 101,-0.00095559,-0.00837557,-0.02225006,-0.02379490,0.00002001,-0.0000
 3484,-0.00001725,0.00001565,0.00009614,0.00007750,0.00020958,0.0001850
 1,0.00013315,0.00490051,0.01336910,0.01607238,0.06469761,0.00008229,0.
 00019085,0.00022626,-0.03780017,-0.16670293,-0.12405473,0.00072841,0.0
 0068275,0.00053157,-0.00289533,-0.00827428,-0.00754863,-0.00002847,-0.
 00004914,0.00000695,-0.00004929,0.00002666,0.00001868,0.00018501,-0.00
 004270,-0.00000255,-0.00628796,-0.01616318,-0.01757565,0.04464958,0.17
 901506,-0.00004694,0.00030104,0.00020504,-0.04047724,-0.12425198,-0.17
 637338,0.00005020,0.00022864,0.00008680,0.00113339,0.00342798,0.003552
 14,0.00002243,0.00000606,-0.00002152,-0.00008497,-0.00001965,-0.000020
 02,0.00013315,-0.00000255,-0.00004552,0.00151995,0.00312392,0.00227178
 ,0.04378464,0.13710642,0.18817968,-0.00009827,-0.00004784,-0.00019165,
 -0.04935625,-0.01239312,0.02789442,0.00194931,-0.00102885,0.00112045,-
 0.00509884,-0.01369325,0.03045241,0.00016788,0.00012960,-0.00020926,0.
 00001516,0.00006758,-0.00010770,0.00002001,-0.00002847,0.00002244,0.00
 263406,0.00751553,-0.01976710,-0.00028179,0.00361756,-0.00613604,0.055
 14906,0.00007456,0.00003574,-0.00017710,-0.01255422,-0.09371423,0.0986
 8253,0.00056786,0.00040820,-0.00073080,-0.00184282,-0.00561530,0.01036
 696,0.00012960,-0.00004644,-0.00001067,-0.00002394,0.00002160,-0.00002
 793,-0.00003484,-0.00004914,0.00000606,-0.00409477,-0.01016895,0.02261
 587,0.00313387,0.01049959,-0.02059544,0.01671255,0.09815142,0.00006882
 ,-0.00024281,0.00037978,0.02836653,0.09885314,-0.25795891,-0.00046697,
 -0.00020617,0.00026751,0.00056004,0.00128270,-0.00238356,-0.00020926,-
 0.00001067,-0.00000009,0.00009246,-0.00000396,-0.00001447,-0.00001726,
 0.00000694,-0.00002152,-0.00024068,0.00002017,-0.00145600,0.00258689,0
 .01026294,-0.01976003,-0.03220230,-0.10986423,0.27859199,-0.00546524,-
 0.01461437,0.03034943,0.00164762,0.00018519,-0.00106635,-0.04820297,-0
 .01208193,0.02331793,0.00026431,0.01020725,-0.02072048,-0.00609411,-0.
 00226823,0.00036174,0.00117169,0.00080935,-0.00012369,0.00135218,0.000
 19439,-0.00064205,0.00020946,-0.00014845,0.00024283,-0.00005847,-0.000
 07177,-0.00006711,-0.00032198,-0.00010423,0.00054794,0.05759295,-0.001
 75012,-0.00454914,0.00908473,-0.00136313,0.00075647,-0.00010476,-0.012
 21140,-0.09536501,0.09684625,-0.00102191,-0.01310225,0.02448644,-0.001
 82746,0.00014310,0.00014786,0.00005352,0.00040629,-0.00044593,0.000391
 79,-0.00013587,0.00016617,-0.00020413,0.00000533,-0.00036168,0.0001273
 5,-0.00000907,-0.00011435,0.00059530,0.00051637,-0.00037282,0.01187938
 ,0.10394536,0.00051497,0.00065450,-0.00184732,0.00014545,-0.00042876,0
 .00038072,0.02372565,0.09752074,-0.25193188,0.00009266,0.00138893,-0.0
 0260857,0.00037989,-0.00021005,0.00168202,0.00050146,-0.00014769,0.000
 03664,0.00033785,0.00017661,0.00065501,-0.00013085,-0.00018024,0.00033
 209,-0.00000561,0.00007974,-0.00010206,-0.00069097,-0.00000622,0.00010
 537,-0.02666848,-0.10917201,0.27168021,-0.00870043,-0.02301798,-0.0233
 5270,0.00175823,0.00051918,0.00077768,-0.05567354,-0.03546795,-0.03550
 137,0.00251989,0.01611665,0.01636568,0.00136743,0.00036379,0.00047063,
 0.00109405,0.00078938,-0.00026946,-0.00599456,-0.00205548,0.00125471,0
 .00020335,-0.00018884,-0.00018471,-0.00030899,-0.00026876,-0.00044409,
 -0.00005166,-0.00005919,0.00008144,0.00008288,0.00259041,0.00231726,0.
 06590060,-0.00264712,-0.00668375,-0.00663511,-0.00135479,0.00089339,0.
 00008560,-0.03563668,-0.16675477,-0.12057474,-0.00363792,-0.01998487,-
 0.01893564,0.00024830,-0.00017272,0.00006002,-0.00008201,0.00053253,0.
 00029460,-0.00168736,0.00038365,0.00049440,-0.00010445,0.00020290,0.00
 042463,0.00081765,0.00057862,0.00012934,0.00013258,-0.00000922,0.00006
 690,0.00310667,0.01027168,0.00973052,0.03792500,0.18342534,0.00119458,
 0.00381061,0.00352248,0.00011031,0.00020208,0.00013322,-0.03586166,-0.
 12126732,-0.17307144,0.00048157,0.00228291,0.00201847,-0.00052230,0.00
 005455,0.00067664,-0.00063574,-0.00010232,-0.00001200,0.00110788,0.000
 90138,0.00134192,0.00018439,0.00024492,0.00014062,0.00051071,-0.000128
 97,0.00003012,-0.00004224,-0.00010349,-0.00010873,-0.00588024,-0.02028
 696,-0.02087354,0.03916580,0.13364995,0.18389245,0.00175823,0.00051918
 ,0.00077768,-0.00870041,-0.02301792,-0.02335279,0.00251987,0.01611662,
 0.01636571,-0.05567335,-0.03546759,-0.03550116,-0.00005166,-0.00005918
 ,0.00008144,0.00020335,-0.00018884,-0.00018472,-0.00030899,-0.00026877
 ,-0.00044409,0.00109407,0.00078938,-0.00026946,-0.00599456,-0.00205550
 ,0.00125470,0.00136742,0.00036379,0.00047064,0.00076063,-0.00098985,-0
 .00029062,-0.00295789,0.00374361,-0.00039025,0.06590042,-0.00135478,0.
 00089338,0.00008561,-0.00264711,-0.00668374,-0.00663515,-0.00363789,-0
 .01998486,-0.01893566,-0.03563634,-0.16675436,-0.12057493,0.00013257,-
 0.00000922,0.00006690,-0.00010445,0.00020290,0.00042463,0.00081764,0.0
 0057863,0.00012933,-0.00008201,0.00053254,0.00029460,-0.00168736,0.000
 38364,0.00049440,0.00024830,-0.00017272,0.00006002,-0.00082348,0.00070
 642,0.00029454,0.00374362,-0.00338921,0.00091499,0.03792461,0.18342489
 ,0.00011031,0.00020207,0.00013321,0.00119454,0.00381053,0.00352243,0.0
 0048155,0.00228293,0.00201848,-0.03586144,-0.12126751,-0.17307219,-0.0
 0004225,-0.00010349,-0.00010873,0.00018439,0.00024492,0.00014063,0.000
 51071,-0.00012896,0.00003011,-0.00063574,-0.00010231,-0.00001199,0.001
 10786,0.00090137,0.00134193,-0.00052230,0.00005454,0.00067663,0.000577
 19,-0.00017232,0.00072653,-0.00039025,0.00091500,0.00158326,0.03916562
 ,0.13365015,0.18389325,0.00164762,0.00018518,-0.00106635,-0.00546528,-
 0.01461447,0.03034939,0.00026434,0.01020729,-0.02072048,-0.04820302,-0
 .01208213,0.02331826,-0.00032198,-0.00010422,0.00054794,0.00020946,-0.
 00014845,0.00024282,-0.00005847,-0.00007177,-0.00006712,0.00117167,0.0
 0080935,-0.00012368,0.00135220,0.00019439,-0.00064205,-0.00609412,-0.0
 0226822,0.00036172,-0.00293895,0.00373024,-0.00022865,0.00076062,-0.00
 082348,0.00057719,0.00008288,0.00310666,-0.00588020,0.05759303,-0.0013
 6313,0.00075649,-0.00010476,-0.00175016,-0.00454918,0.00908474,-0.0010
 2194,-0.01310226,0.02448642,-0.01221159,-0.09536539,0.09684648,0.00059
 530,0.00051636,-0.00037282,-0.00020413,0.00000533,-0.00036169,0.000127
 35,-0.00000907,-0.00011435,0.00005352,0.00040628,-0.00044592,0.0003917
 9,-0.00013587,0.00016617,-0.00182747,0.00014310,0.00014786,0.00373023,
 -0.00358967,0.00029938,-0.00098984,0.00070642,-0.00017232,0.00259044,0
 .01027171,-0.02028691,0.01187962,0.10394577,0.00014545,-0.00042877,0.0
 0038073,0.00051494,0.00065447,-0.00184724,0.00009265,0.00138895,-0.002
 60858,0.02372599,0.09752098,-0.25193144,-0.00069097,-0.00000622,0.0001
 0537,-0.00013085,-0.00018024,0.00033209,-0.00000562,0.00007975,-0.0001
 0207,0.00050146,-0.00014768,0.00003663,0.00033785,0.00017661,0.0006550
 3,0.00037987,-0.00021007,0.00168202,-0.00022865,0.00029938,0.00176479,
 -0.00029062,0.00029454,0.00072652,0.00231730,0.00973058,-0.02087355,-0
 .02666880,-0.10917228,0.27167971\\-0.00000069,-0.00001435,0.00000234,0
 .00000055,0.00001426,-0.00000230,-0.00000412,-0.00000377,0.00000089,0.
 00000422,0.00000385,-0.00000087,0.00000401,-0.00001582,0.00000228,-0.0
 0000671,-0.00001947,0.00000351,0.00000404,-0.00001581,0.00000226,0.000
 00673,0.00001950,-0.00000350,-0.00000400,0.00001583,-0.00000228,-0.000
 00399,0.00001584,-0.00000230,-0.00000894,-0.00000234,0.00000090,-0.000
 00896,-0.00000236,0.00000089,0.00000892,0.00000232,-0.00000089,0.00000
 894,0.00000231,-0.00000093\\\@


 Democracy is the recurrent suspicion that more than half of the people
 are right more than half of the time.
 -- E. B. White
 Job cpu time:  0 days  0 hours 58 minutes 52.8 seconds.
 File lengths (MBytes):  RWF=    112 Int=      0 D2E=      0 Chk=      5 Scr=      1
 Normal termination of Gaussian 09 at Tue May  8 09:44:02 2018.
