 Entering Gaussian System, Link 0=g09
 Initial command:
 /shared/apps/gaussian/G09_LINUX_LINDA/g09/l1.exe /home/harms.n/Code/AutoTST/Gau-34839.inp -scrdir=/home/harms.n/Code/AutoTST/
 Entering Link 1 = /shared/apps/gaussian/G09_LINUX_LINDA/g09/l1.exe PID=     34840.
  
 Copyright (c) 1988,1990,1992,1993,1995,1998,2003,2009,2010,
            Gaussian, Inc.  All Rights Reserved.
  
 This is part of the Gaussian(R) 09 program.  It is based on
 the Gaussian(R) 03 system (copyright 2003, Gaussian, Inc.),
 the Gaussian(R) 98 system (copyright 1998, Gaussian, Inc.),
 the Gaussian(R) 94 system (copyright 1995, Gaussian, Inc.),
 the Gaussian 92(TM) system (copyright 1992, Gaussian, Inc.),
 the Gaussian 90(TM) system (copyright 1990, Gaussian, Inc.),
 the Gaussian 88(TM) system (copyright 1988, Gaussian, Inc.),
 the Gaussian 86(TM) system (copyright 1986, Carnegie Mellon
 University), and the Gaussian 82(TM) system (copyright 1983,
 Carnegie Mellon University). Gaussian is a federally registered
 trademark of Gaussian, Inc.
  
 This software contains proprietary and confidential information,
 including trade secrets, belonging to Gaussian, Inc.
  
 This software is provided under written license and may be
 used, copied, transmitted, or stored only in accord with that
 written license.
  
 The following legend is applicable only to US Government
 contracts under FAR:
  
                    RESTRICTED RIGHTS LEGEND
  
 Use, reproduction and disclosure by the US Government is
 subject to restrictions as set forth in subparagraphs (a)
 and (c) of the Commercial Computer Software - Restricted
 Rights clause in FAR 52.227-19.
  
 Gaussian, Inc.
 340 Quinnipiac St., Bldg. 40, Wallingford CT 06492
  
  
 ---------------------------------------------------------------
 Warning -- This program may not be used in any manner that
 competes with the business of Gaussian, Inc. or will provide
 assistance to any competitor of Gaussian, Inc.  The licensee
 of this program is prohibited from giving any competitor of
 Gaussian, Inc. access to this program.  By using this program,
 the user acknowledges that Gaussian, Inc. is engaged in the
 business of creating and licensing software in the field of
 computational chemistry and represents and warrants to the
 licensee that it is not a competitor of Gaussian, Inc. and that
 it will not use this program in any manner prohibited above.
 ---------------------------------------------------------------
  

 Cite this work as:
 Gaussian 09, Revision B.01,
 M. J. Frisch, G. W. Trucks, H. B. Schlegel, G. E. Scuseria, 
 M. A. Robb, J. R. Cheeseman, G. Scalmani, V. Barone, B. Mennucci, 
 G. A. Petersson, H. Nakatsuji, M. Caricato, X. Li, H. P. Hratchian, 
 A. F. Izmaylov, J. Bloino, G. Zheng, J. L. Sonnenberg, M. Hada, 
 M. Ehara, K. Toyota, R. Fukuda, J. Hasegawa, M. Ishida, T. Nakajima, 
 Y. Honda, O. Kitao, H. Nakai, T. Vreven, J. A. Montgomery, Jr., 
 J. E. Peralta, F. Ogliaro, M. Bearpark, J. J. Heyd, E. Brothers, 
 K. N. Kudin, V. N. Staroverov, T. Keith, R. Kobayashi, J. Normand, 
 K. Raghavachari, A. Rendell, J. C. Burant, S. S. Iyengar, J. Tomasi, 
 M. Cossi, N. Rega, J. M. Millam, M. Klene, J. E. Knox, J. B. Cross, 
 V. Bakken, C. Adamo, J. Jaramillo, R. Gomperts, R. E. Stratmann, 
 O. Yazyev, A. J. Austin, R. Cammi, C. Pomelli, J. W. Ochterski, 
 R. L. Martin, K. Morokuma, V. G. Zakrzewski, G. A. Voth, 
 P. Salvador, J. J. Dannenberg, S. Dapprich, A. D. Daniels, 
 O. Farkas, J. B. Foresman, J. V. Ortiz, J. Cioslowski, 
 and D. J. Fox, Gaussian, Inc., Wallingford CT, 2010.
 
 ******************************************
 Gaussian 09:  EM64L-G09RevB.01 12-Aug-2010
                 8-May-2018 
 ******************************************
 %nprocshared=20
 Will use up to   20 processors via shared memory.
 %mem=5GB
 -----------------------------------------------------------
 #p m062x/6-311+g(2df,2p) Opt=(ModRedun,Loose) Int(Grid=SG1)
 -----------------------------------------------------------
 1/7=-1,14=-1,18=120,19=15,26=2,38=1/1,3;
 2/9=110,12=2,17=6,18=5,40=1/2;
 3/5=4,6=6,7=214,11=2,16=1,25=1,30=1,71=1,74=-55,75=1/1,2,3;
 4//1;
 5/5=2,38=5/2;
 6/7=2,8=2,9=2,10=2,28=1/1;
 7//1,2,3,16;
 1/7=-1,14=-1,18=20,19=15/3(2);
 2/9=110/2;
 99//99;
 2/9=110/2;
 3/5=4,6=6,7=214,11=2,16=1,25=1,30=1,71=1,74=-55,75=1/1,2,3;
 4/5=5,16=3/1;
 5/5=2,38=5/2;
 7//1,2,3,16;
 1/7=-1,14=-1,18=20,19=15/3(-5);
 2/9=110/2;
 6/7=2,8=2,9=2,10=2,19=2,28=1/1;
 99/9=1/99;
 Leave Link    1 at Tue May  8 10:54:00 2018, MaxMem=  671088640 cpu:       1.2
 (Enter /shared/apps/gaussian/G09_LINUX_LINDA/g09/l101.exe)
 ------------------------------
 Gaussian input prepared by ASE
 ------------------------------
 Symbolic Z-matrix:
 Charge =  0 Multiplicity = 2
 O                     2.5914    0.0423   -0.4662 
 O                     3.4557    0.9885   -0.1667 
 C                     0.7395   -1.5479    0.0767 
 C                    -2.0703    1.1196    0.0969 
 C                    -0.5445   -0.8404   -0.3411 
 C                    -0.7866    0.4077    0.5136 
 H                     3.0641    1.8129   -0.5508 
 H                     1.8078   -0.7051   -0.071 
 H                     0.6731   -1.8759    1.136 
 H                     0.8983   -2.4412   -0.5635 
 H                    -2.2199    2.0182    0.7319 
 H                    -2.9441    0.4455    0.2241 
 H                    -2.0061    1.4413   -0.9644 
 H                    -1.3977   -1.5447   -0.2297 
 H                    -0.4611   -0.5513   -1.4112 
 H                    -0.8668    0.1194    1.5845 
 H                     0.0672    1.1111    0.4011 
 
 NAtoms=     17 NQM=     17 NQMF=      0 NMic=      0 NMicF=      0 NTot=     17.
 The following ModRedundant input section has been read:
 B       1       3 F                                                           
 B       1       8 F                                                           
 B       3       8 F                                                           
                    Isotopes and Nuclear Properties:
 (Nuclear quadrupole moments (NQMom) in fm**2, nuclear magnetic moments (NMagM)
  in nuclear magnetons)

  Atom         1           2           3           4           5           6           7           8           9          10
 IAtWgt=          16          16          12          12          12          12           1           1           1           1
 AtmWgt=  15.9949146  15.9949146  12.0000000  12.0000000  12.0000000  12.0000000   1.0078250   1.0078250   1.0078250   1.0078250
 NucSpn=           0           0           0           0           0           0           1           1           1           1
 AtZEff=   0.0000000   0.0000000   0.0000000   0.0000000   0.0000000   0.0000000   0.0000000   0.0000000   0.0000000   0.0000000
 NQMom=    0.0000000   0.0000000   0.0000000   0.0000000   0.0000000   0.0000000   0.0000000   0.0000000   0.0000000   0.0000000
 NMagM=    0.0000000   0.0000000   0.0000000   0.0000000   0.0000000   0.0000000   2.7928460   2.7928460   2.7928460   2.7928460

  Atom        11          12          13          14          15          16          17
 IAtWgt=           1           1           1           1           1           1           1
 AtmWgt=   1.0078250   1.0078250   1.0078250   1.0078250   1.0078250   1.0078250   1.0078250
 NucSpn=           1           1           1           1           1           1           1
 AtZEff=   0.0000000   0.0000000   0.0000000   0.0000000   0.0000000   0.0000000   0.0000000
 NQMom=    0.0000000   0.0000000   0.0000000   0.0000000   0.0000000   0.0000000   0.0000000
 NMagM=    2.7928460   2.7928460   2.7928460   2.7928460   2.7928460   2.7928460   2.7928460
 Leave Link  101 at Tue May  8 10:54:00 2018, MaxMem=  671088640 cpu:       1.2
 (Enter /shared/apps/gaussian/G09_LINUX_LINDA/g09/l103.exe)

 GradGradGradGradGradGradGradGradGradGradGradGradGradGradGradGradGradGrad
 Berny optimization.
 Initialization pass.
                           ----------------------------
                           !    Initial Parameters    !
                           ! (Angstroms and Degrees)  !
 --------------------------                            --------------------------
 ! Name  Definition              Value          Derivative Info.                !
 --------------------------------------------------------------------------------
 ! R1    R(1,2)                  1.3161         estimate D2E/DX2                !
 ! R2    R(1,3)                  2.5006         Frozen                          !
 ! R3    R(1,8)                  1.1527         Frozen                          !
 ! R4    R(2,7)                  0.9902         estimate D2E/DX2                !
 ! R5    R(3,5)                  1.5244         estimate D2E/DX2                !
 ! R6    R(3,8)                  1.3687         Frozen                          !
 ! R7    R(3,9)                  1.1109         estimate D2E/DX2                !
 ! R8    R(3,10)                 1.1104         estimate D2E/DX2                !
 ! R9    R(4,6)                  1.5259         estimate D2E/DX2                !
 ! R10   R(4,11)                 1.1104         estimate D2E/DX2                !
 ! R11   R(4,12)                 1.1109         estimate D2E/DX2                !
 ! R12   R(4,13)                 1.1108         estimate D2E/DX2                !
 ! R13   R(5,6)                  1.532          estimate D2E/DX2                !
 ! R14   R(5,14)                 1.1119         estimate D2E/DX2                !
 ! R15   R(5,15)                 1.1116         estimate D2E/DX2                !
 ! R16   R(6,16)                 1.1119         estimate D2E/DX2                !
 ! R17   R(6,17)                 1.1119         estimate D2E/DX2                !
 ! A1    A(2,1,8)              146.5701         estimate D2E/DX2                !
 ! A2    A(1,2,7)              104.5118         estimate D2E/DX2                !
 ! A3    A(5,3,8)              110.0028         estimate D2E/DX2                !
 ! A4    A(5,3,9)              110.3671         estimate D2E/DX2                !
 ! A5    A(5,3,10)             109.6217         estimate D2E/DX2                !
 ! A6    A(8,3,9)              109.3511         estimate D2E/DX2                !
 ! A7    A(8,3,10)             108.7549         estimate D2E/DX2                !
 ! A8    A(9,3,10)             108.7099         estimate D2E/DX2                !
 ! A9    A(6,4,11)             109.5554         estimate D2E/DX2                !
 ! A10   A(6,4,12)             110.3254         estimate D2E/DX2                !
 ! A11   A(6,4,13)             110.3283         estimate D2E/DX2                !
 ! A12   A(11,4,12)            108.6385         estimate D2E/DX2                !
 ! A13   A(11,4,13)            108.6492         estimate D2E/DX2                !
 ! A14   A(12,4,13)            109.3041         estimate D2E/DX2                !
 ! A15   A(3,5,6)              110.9973         estimate D2E/DX2                !
 ! A16   A(3,5,14)             108.9581         estimate D2E/DX2                !
 ! A17   A(3,5,15)             108.7449         estimate D2E/DX2                !
 ! A18   A(6,5,14)             109.8088         estimate D2E/DX2                !
 ! A19   A(6,5,15)             109.6977         estimate D2E/DX2                !
 ! A20   A(14,5,15)            108.5872         estimate D2E/DX2                !
 ! A21   A(4,6,5)              111.1428         estimate D2E/DX2                !
 ! A22   A(4,6,16)             108.8626         estimate D2E/DX2                !
 ! A23   A(4,6,17)             108.8574         estimate D2E/DX2                !
 ! A24   A(5,6,16)             109.7241         estimate D2E/DX2                !
 ! A25   A(5,6,17)             109.7299         estimate D2E/DX2                !
 ! A26   A(16,6,17)            108.4721         estimate D2E/DX2                !
 ! A27   A(1,8,3)              165.1946         estimate D2E/DX2                !
 ! D1    D(8,1,2,7)           -111.4259         estimate D2E/DX2                !
 ! D2    D(2,1,8,3)            151.6431         estimate D2E/DX2                !
 ! D3    D(8,3,5,6)            -59.8457         estimate D2E/DX2                !
 ! D4    D(8,3,5,14)           179.1135         estimate D2E/DX2                !
 ! D5    D(8,3,5,15)            60.9182         estimate D2E/DX2                !
 ! D6    D(9,3,5,6)             60.9037         estimate D2E/DX2                !
 ! D7    D(9,3,5,14)           -60.137          estimate D2E/DX2                !
 ! D8    D(9,3,5,15)          -178.3324         estimate D2E/DX2                !
 ! D9    D(10,3,5,6)          -179.3859         estimate D2E/DX2                !
 ! D10   D(10,3,5,14)           59.5733         estimate D2E/DX2                !
 ! D11   D(10,3,5,15)          -58.622          estimate D2E/DX2                !
 ! D12   D(5,3,8,1)            -50.4124         estimate D2E/DX2                !
 ! D13   D(9,3,8,1)           -171.7713         estimate D2E/DX2                !
 ! D14   D(10,3,8,1)            69.6544         estimate D2E/DX2                !
 ! D15   D(11,4,6,5)           179.995          estimate D2E/DX2                !
 ! D16   D(11,4,6,16)           59.0304         estimate D2E/DX2                !
 ! D17   D(11,4,6,17)          -59.0365         estimate D2E/DX2                !
 ! D18   D(12,4,6,5)            60.4404         estimate D2E/DX2                !
 ! D19   D(12,4,6,16)          -60.5242         estimate D2E/DX2                !
 ! D20   D(12,4,6,17)         -178.5911         estimate D2E/DX2                !
 ! D21   D(13,4,6,5)           -60.4352         estimate D2E/DX2                !
 ! D22   D(13,4,6,16)          178.6001         estimate D2E/DX2                !
 ! D23   D(13,4,6,17)           60.5332         estimate D2E/DX2                !
 ! D24   D(3,5,6,4)            179.9255         estimate D2E/DX2                !
 ! D25   D(3,5,6,16)           -59.6177         estimate D2E/DX2                !
 ! D26   D(3,5,6,17)            59.4712         estimate D2E/DX2                !
 ! D27   D(14,5,6,4)           -59.5361         estimate D2E/DX2                !
 ! D28   D(14,5,6,16)           60.9208         estimate D2E/DX2                !
 ! D29   D(14,5,6,17)         -179.9904         estimate D2E/DX2                !
 ! D30   D(15,5,6,4)            59.7259         estimate D2E/DX2                !
 ! D31   D(15,5,6,16)         -179.8172         estimate D2E/DX2                !
 ! D32   D(15,5,6,17)          -60.7284         estimate D2E/DX2                !
 --------------------------------------------------------------------------------
 Trust Radius=3.00D-01 FncErr=1.00D-05 GrdErr=1.00D-04
 Number of steps in this run=     86 maximum allowed number of steps=    102.
 GradGradGradGradGradGradGradGradGradGradGradGradGradGradGradGradGradGrad

 Leave Link  103 at Tue May  8 10:54:00 2018, MaxMem=  671088640 cpu:       0.2
 (Enter /shared/apps/gaussian/G09_LINUX_LINDA/g09/l202.exe)
                          Input orientation:                          
 ---------------------------------------------------------------------
 Center     Atomic      Atomic             Coordinates (Angstroms)
 Number     Number       Type             X           Y           Z
 ---------------------------------------------------------------------
      1          8           0        2.591400    0.042300   -0.466200
      2          8           0        3.455700    0.988500   -0.166700
      3          6           0        0.739500   -1.547900    0.076700
      4          6           0       -2.070300    1.119600    0.096900
      5          6           0       -0.544500   -0.840400   -0.341100
      6          6           0       -0.786600    0.407700    0.513600
      7          1           0        3.064100    1.812900   -0.550800
      8          1           0        1.807800   -0.705100   -0.071000
      9          1           0        0.673100   -1.875900    1.136000
     10          1           0        0.898300   -2.441200   -0.563500
     11          1           0       -2.219900    2.018200    0.731900
     12          1           0       -2.944100    0.445500    0.224100
     13          1           0       -2.006100    1.441300   -0.964400
     14          1           0       -1.397700   -1.544700   -0.229700
     15          1           0       -0.461100   -0.551300   -1.411200
     16          1           0       -0.866800    0.119400    1.584500
     17          1           0        0.067200    1.111100    0.401100
 ---------------------------------------------------------------------
                    Distance matrix (angstroms):
                    1          2          3          4          5
     1  O    0.000000
     2  O    1.316058   0.000000
     3  C    2.500602   3.724287   0.000000
     4  C    4.817583   5.533837   3.874395   0.000000
     5  C    3.260165   4.401919   1.524391   2.522203   0.000000
     6  C    3.536157   4.335579   2.518776   1.525885   1.531952
     7  H    1.834564   0.990211   4.134307   5.221326   4.483968
     8  H    1.152744   2.364955   1.368719   4.289217   2.371619
     9  H    3.150621   4.200557   1.110905   4.192731   2.176381
    10  H    3.007296   4.296579   1.110432   4.682735   2.166494
    11  H    5.337437   5.837825   4.680214   1.110445   3.482799
    12  H    5.592928   6.434673   4.190976   1.110908   2.780480
    13  H    4.831398   5.538286   4.190170   1.110842   2.780455
    14  H    4.299700   5.475086   2.159054   2.767228   1.111935
    15  H    3.250099   4.388745   2.156038   2.766911   1.111597
    16  H    4.021251   4.744053   2.762888   2.159112   2.175553
    17  H    2.875088   3.437930   2.761794   2.159054   2.175636
                    6          7          8          9         10
     6  C    0.000000
     7  H    4.235024   0.000000
     8  H    2.882879   2.854614   0.000000
     9  H    2.780815   4.708441   2.028587   0.000000
    10  H    3.480699   4.773701   2.020839   1.805154   0.000000
    11  H    2.166960   5.441335   4.927817   4.867932   5.593521
    12  H    2.177165   6.210372   4.898114   4.393700   4.870050
    13  H    2.177153   5.100596   4.466658   4.753273   4.865189
    14  H    2.176650   5.593232   3.317430   2.502607   2.487318
    15  H    2.174968   4.330908   2.639640   3.086941   2.477556
    16  H    1.111924   4.783244   3.251763   2.560013   3.779703
    17  H    1.111936   3.221808   2.559521   3.135181   3.773595
                   11         12         13         14         15
    11  H    0.000000
    12  H    1.804359   0.000000
    13  H    1.804427   1.812179   0.000000
    14  H    3.780865   2.560895   3.134666   0.000000
    15  H    3.780025   3.135778   2.560685   1.805548   0.000000
    16  H    2.482589   2.504437   3.089064   2.518413   3.096554
    17  H    2.482556   3.089058   2.504435   3.097921   2.515374
                   16         17
    16  H    0.000000
    17  H    1.804511   0.000000
 Stoichiometry    C4H11O2(2)
 Framework group  C1[X(C4H11O2)]
 Deg. of freedom    45
 Full point group                 C1      NOp   1
 Largest Abelian subgroup         C1      NOp   1
 Largest concise Abelian subgroup C1      NOp   1
                         Standard orientation:                         
 ---------------------------------------------------------------------
 Center     Atomic      Atomic             Coordinates (Angstroms)
 Number     Number       Type             X           Y           Z
 ---------------------------------------------------------------------
      1          8           0       -2.051137    0.037560   -0.229001
      2          8           0       -2.891302   -0.917640    0.108230
      3          6           0       -0.147641    1.598781    0.209521
      4          6           0        2.635104   -1.075396   -0.131133
      5          6           0        1.089077    0.905327   -0.350319
      6          6           0        1.398616   -0.377502    0.427764
      7          1           0       -2.541120   -1.726703   -0.342666
      8          1           0       -1.230384    0.765841    0.124255
      9          1           0        0.015585    1.882824    1.271023
     10          1           0       -0.357319    2.518064   -0.377004
     11          1           0        2.835119   -1.999735    0.450829
     12          1           0        3.521191   -0.409611   -0.055651
     13          1           0        2.473932   -1.353069   -1.194566
     14          1           0        1.953428    1.601995   -0.287482
     15          1           0        0.908207    0.660643   -1.419460
     16          1           0        1.576365   -0.133641    1.497957
     17          1           0        0.533574   -1.073224    0.363924
 ---------------------------------------------------------------------
 Rotational constants (GHZ):      4.7323339      1.3396452      1.1056568
 Leave Link  202 at Tue May  8 10:54:00 2018, MaxMem=  671088640 cpu:       1.0
 (Enter /shared/apps/gaussian/G09_LINUX_LINDA/g09/l301.exe)
 Standard basis: 6-311+G(2df,2p) (5D, 7F)
 Ernie: Thresh=  0.10000D-02 Tol=  0.10000D-05 Strict=F.
 There are   303 symmetry adapted basis functions of A   symmetry.
 Integral buffers will be    131072 words long.
 Raffenetti 2 integral format.
 Two-electron integral symmetry is turned on.
   303 basis functions,   433 primitive gaussians,   333 cartesian basis functions
    26 alpha electrons       25 beta electrons
       nuclear repulsion energy       242.8482562101 Hartrees.
 IExCor= 4336 DFT=T Ex+Corr=M062X ExCW=0 ScaHFX=  0.540000
 ScaDFX=  1.000000  1.000000  1.000000  1.000000 ScalE2=  1.000000  1.000000
 IRadAn=      1 IRanWt=     -1 IRanGd=            0 ICorTp=0
 NAtoms=   17 NActive=   17 NUniq=   17 SFac= 1.00D+00 NAtFMM=   50 NAOKFM=F Big=F
 Leave Link  301 at Tue May  8 10:54:00 2018, MaxMem=  671088640 cpu:       1.0
 (Enter /shared/apps/gaussian/G09_LINUX_LINDA/g09/l302.exe)
 NPDir=0 NMtPBC=     1 NCelOv=     1 NCel=       1 NClECP=     1 NCelD=      1
         NCelK=      1 NCelE2=     1 NClLst=     1 CellRange=     0.0.
 One-electron integrals computed using PRISM.
 NBasis=   303 RedAO= T  NBF=   303
 NBsUse=   303 1.00D-06 NBFU=   303
 Precomputing XC quadrature grid using
 IXCGrd= 2 IRadAn=           1 IRanWt=          -1 IRanGd=           0 AccXCQ= 0.00D+00.
 NRdTot=     731 NPtTot=       53762 NUsed=       59113 NTot=       59145
 NSgBfM=   333   333   333   333   333 NAtAll=    17    17.
 Leave Link  302 at Tue May  8 10:54:02 2018, MaxMem=  671088640 cpu:      15.4
 (Enter /shared/apps/gaussian/G09_LINUX_LINDA/g09/l303.exe)
 DipDrv:  MaxL=1.
 Leave Link  303 at Tue May  8 10:54:02 2018, MaxMem=  671088640 cpu:       3.3
 (Enter /shared/apps/gaussian/G09_LINUX_LINDA/g09/l401.exe)
 Harris functional with IExCor= 1009 diagonalized for initial guess.
 ExpMin= 4.38D-02 ExpMax= 8.59D+03 ExpMxC= 1.30D+03 IAcc=2 IRadAn=         1 AccDes= 0.00D+00
 HarFok:  IExCor= 1009 AccDes= 0.00D+00 IRadAn=         1 IDoV= 1
 ScaDFX=  1.000000  1.000000  1.000000  1.000000
 FoFCou: FMM=F IPFlag=           0 FMFlag=      100000 FMFlg1=           0
         NFxFlg=           0 DoJE=T BraDBF=F KetDBF=T FulRan=T
         Omega=  0.000000  0.000000  1.000000  0.000000  0.000000 ICntrl=     500 IOpCl=  0
         NMat0=    1 NMatS0=    1 NMatT0=    0 NMatD0=    1 NMtDS0=    0 NMtDT0=    0
         I1Cent=           4 NGrid=           0.
 Petite list used in FoFCou.
 Harris En= -309.163177533576    
 Initial guess orbital symmetries:
 Alpha Orbitals:
       Occupied  (A) (A) (A) (A) (A) (A) (A) (A) (A) (A) (A) (A)
                 (A) (A) (A) (A) (A) (A) (A) (A) (A) (A) (A) (A)
                 (A) (A)
       Virtual   (A) (A) (A) (A) (A) (A) (A) (A) (A) (A) (A) (A)
                 (A) (A) (A) (A) (A) (A) (A) (A) (A) (A) (A) (A)
                 (A) (A) (A) (A) (A) (A) (A) (A) (A) (A) (A) (A)
                 (A) (A) (A) (A) (A) (A) (A) (A) (A) (A) (A) (A)
                 (A) (A) (A) (A) (A) (A) (A) (A) (A) (A) (A) (A)
                 (A) (A) (A) (A) (A) (A) (A) (A) (A) (A) (A) (A)
                 (A) (A) (A) (A) (A) (A) (A) (A) (A) (A) (A) (A)
                 (A) (A) (A) (A) (A) (A) (A) (A) (A) (A) (A) (A)
                 (A) (A) (A) (A) (A) (A) (A) (A) (A) (A) (A) (A)
                 (A) (A) (A) (A) (A) (A) (A) (A) (A) (A) (A) (A)
                 (A) (A) (A) (A) (A) (A) (A) (A) (A) (A) (A) (A)
                 (A) (A) (A) (A) (A) (A) (A) (A) (A) (A) (A) (A)
                 (A) (A) (A) (A) (A) (A) (A) (A) (A) (A) (A) (A)
                 (A) (A) (A) (A) (A) (A) (A) (A) (A) (A) (A) (A)
                 (A) (A) (A) (A) (A) (A) (A) (A) (A) (A) (A) (A)
                 (A) (A) (A) (A) (A) (A) (A) (A) (A) (A) (A) (A)
                 (A) (A) (A) (A) (A) (A) (A) (A) (A) (A) (A) (A)
                 (A) (A) (A) (A) (A) (A) (A) (A) (A) (A) (A) (A)
                 (A) (A) (A) (A) (A) (A) (A) (A) (A) (A) (A) (A)
                 (A) (A) (A) (A) (A) (A) (A) (A) (A) (A) (A) (A)
                 (A) (A) (A) (A) (A) (A) (A) (A) (A) (A) (A) (A)
                 (A) (A) (A) (A) (A) (A) (A) (A) (A) (A) (A) (A)
                 (A) (A) (A) (A) (A) (A) (A) (A) (A) (A) (A) (A)
                 (A)
 Beta  Orbitals:
       Occupied  (A) (A) (A) (A) (A) (A) (A) (A) (A) (A) (A) (A)
                 (A) (A) (A) (A) (A) (A) (A) (A) (A) (A) (A) (A)
                 (A)
       Virtual   (A) (A) (A) (A) (A) (A) (A) (A) (A) (A) (A) (A)
                 (A) (A) (A) (A) (A) (A) (A) (A) (A) (A) (A) (A)
                 (A) (A) (A) (A) (A) (A) (A) (A) (A) (A) (A) (A)
                 (A) (A) (A) (A) (A) (A) (A) (A) (A) (A) (A) (A)
                 (A) (A) (A) (A) (A) (A) (A) (A) (A) (A) (A) (A)
                 (A) (A) (A) (A) (A) (A) (A) (A) (A) (A) (A) (A)
                 (A) (A) (A) (A) (A) (A) (A) (A) (A) (A) (A) (A)
                 (A) (A) (A) (A) (A) (A) (A) (A) (A) (A) (A) (A)
                 (A) (A) (A) (A) (A) (A) (A) (A) (A) (A) (A) (A)
                 (A) (A) (A) (A) (A) (A) (A) (A) (A) (A) (A) (A)
                 (A) (A) (A) (A) (A) (A) (A) (A) (A) (A) (A) (A)
                 (A) (A) (A) (A) (A) (A) (A) (A) (A) (A) (A) (A)
                 (A) (A) (A) (A) (A) (A) (A) (A) (A) (A) (A) (A)
                 (A) (A) (A) (A) (A) (A) (A) (A) (A) (A) (A) (A)
                 (A) (A) (A) (A) (A) (A) (A) (A) (A) (A) (A) (A)
                 (A) (A) (A) (A) (A) (A) (A) (A) (A) (A) (A) (A)
                 (A) (A) (A) (A) (A) (A) (A) (A) (A) (A) (A) (A)
                 (A) (A) (A) (A) (A) (A) (A) (A) (A) (A) (A) (A)
                 (A) (A) (A) (A) (A) (A) (A) (A) (A) (A) (A) (A)
                 (A) (A) (A) (A) (A) (A) (A) (A) (A) (A) (A) (A)
                 (A) (A) (A) (A) (A) (A) (A) (A) (A) (A) (A) (A)
                 (A) (A) (A) (A) (A) (A) (A) (A) (A) (A) (A) (A)
                 (A) (A) (A) (A) (A) (A) (A) (A) (A) (A) (A) (A)
                 (A) (A)
 The electronic state of the initial guess is 2-A.
 Initial guess <Sx>= 0.0000 <Sy>= 0.0000 <Sz>= 0.5000 <S**2>= 0.7500 S= 0.5000
 Leave Link  401 at Tue May  8 10:54:08 2018, MaxMem=  671088640 cpu:      50.1
 (Enter /shared/apps/gaussian/G09_LINUX_LINDA/g09/l502.exe)
 UHF open shell SCF:
 Requested convergence on RMS density matrix=1.00D-08 within 128 cycles.
 Requested convergence on MAX density matrix=1.00D-06.
 Requested convergence on             energy=1.00D-06.
 No special actions if energy rises.
 Using DIIS extrapolation, IDIIS=  1040.
 Integral symmetry usage will be decided dynamically.
        58947 words used for storage of precomputed grid.
 IEnd=      418858 IEndB=      418858 NGot=   671088640 MDV=   670797645
 LenX=   670797645 LenY=   670686315
 Fock matrices will be formed incrementally for  20 cycles.

 Cycle   1  Pass 1  IDiag  1:
 FoFCou: FMM=F IPFlag=           0 FMFlag=      100000 FMFlg1=           0
         NFxFlg=           0 DoJE=F BraDBF=F KetDBF=F FulRan=T
         Omega=  0.000000  0.000000  1.000000  0.000000  0.000000 ICntrl=       0 IOpCl=  1
         NMat0=    1 NMatS0=    1 NMatT0=    0 NMatD0=    1 NMtDS0=    0 NMtDT0=    0
         I1Cent=           0 NGrid=           0.
 Symmetry not used in FoFCou.
 E= -308.980446005786    
 DIIS: error= 2.90D-02 at cycle   1 NSaved=   1.
 NSaved= 1 IEnMin= 1 EnMin= -308.980446005786     IErMin= 1 ErrMin= 2.90D-02
 ErrMax= 2.90D-02 EMaxC= 1.00D-01 BMatC= 1.09D+00 BMatP= 1.09D+00
 IDIUse=3 WtCom= 7.10D-01 WtEn= 2.90D-01
 Coeff-Com:  0.100D+01
 Coeff-En:   0.100D+01
 Coeff:      0.100D+01
 Gap=     0.444 Goal=   None    Shift=    0.000
 Gap=     0.279 Goal=   None    Shift=    0.000
 GapD=    0.279 DampG=1.000 DampE=0.500 DampFc=0.5000 IDamp=-1.
 Damping current iteration by 5.00D-01
 RMSDP=4.93D-03 MaxDP=2.92D-01              OVMax= 4.06D-01

 Cycle   2  Pass 1  IDiag  1:
 RMSU=  1.73D-03    CP:  9.05D-01
 E= -309.090847841589     Delta-E=       -0.110401835803 Rises=F Damp=T
 DIIS: error= 8.35D-03 at cycle   2 NSaved=   2.
 NSaved= 2 IEnMin= 2 EnMin= -309.090847841589     IErMin= 2 ErrMin= 8.35D-03
 ErrMax= 8.35D-03 EMaxC= 1.00D-01 BMatC= 1.07D-01 BMatP= 1.09D+00
 IDIUse=3 WtCom= 9.17D-01 WtEn= 8.35D-02
 Coeff-Com:  0.172D-01 0.983D+00
 Coeff-En:   0.101D+00 0.899D+00
 Coeff:      0.242D-01 0.976D+00
 Gap=     0.344 Goal=   None    Shift=    0.000
 Gap=     0.275 Goal=   None    Shift=    0.000
 RMSDP=1.70D-03 MaxDP=8.90D-02 DE=-1.10D-01 OVMax= 3.48D-01

 Cycle   3  Pass 1  IDiag  1:
 RMSU=  1.05D-03    CP:  9.12D-01  6.67D-01
 E= -309.220565125037     Delta-E=       -0.129717283448 Rises=F Damp=F
 DIIS: error= 8.36D-03 at cycle   3 NSaved=   3.
 NSaved= 3 IEnMin= 3 EnMin= -309.220565125037     IErMin= 2 ErrMin= 8.35D-03
 ErrMax= 8.36D-03 EMaxC= 1.00D-01 BMatC= 7.28D-02 BMatP= 1.07D-01
 IDIUse=3 WtCom= 9.16D-01 WtEn= 8.36D-02
 Coeff-Com: -0.625D-01 0.471D+00 0.591D+00
 Coeff-En:   0.000D+00 0.000D+00 0.100D+01
 Coeff:     -0.572D-01 0.432D+00 0.626D+00
 Gap=     0.325 Goal=   None    Shift=    0.000
 Gap=     0.192 Goal=   None    Shift=    0.000
 RMSDP=5.78D-04 MaxDP=2.28D-02 DE=-1.30D-01 OVMax= 1.17D-01

 Cycle   4  Pass 1  IDiag  1:
 RMSU=  2.96D-04    CP:  9.07D-01  7.60D-01  8.41D-01
 E= -309.234436333979     Delta-E=       -0.013871208942 Rises=F Damp=F
 DIIS: error= 3.17D-03 at cycle   4 NSaved=   4.
 NSaved= 4 IEnMin= 4 EnMin= -309.234436333979     IErMin= 4 ErrMin= 3.17D-03
 ErrMax= 3.17D-03 EMaxC= 1.00D-01 BMatC= 1.32D-02 BMatP= 7.28D-02
 IDIUse=3 WtCom= 9.68D-01 WtEn= 3.17D-02
 Coeff-Com: -0.267D-01 0.644D-01 0.319D+00 0.643D+00
 Coeff-En:   0.000D+00 0.000D+00 0.708D-01 0.929D+00
 Coeff:     -0.258D-01 0.624D-01 0.312D+00 0.652D+00
 Gap=     0.321 Goal=   None    Shift=    0.000
 Gap=     0.207 Goal=   None    Shift=    0.000
 RMSDP=1.99D-04 MaxDP=7.90D-03 DE=-1.39D-02 OVMax= 1.45D-02

 Cycle   5  Pass 1  IDiag  1:
 RMSU=  8.75D-05    CP:  9.06D-01  7.30D-01  9.08D-01  8.78D-01
 E= -309.237183665224     Delta-E=       -0.002747331245 Rises=F Damp=F
 DIIS: error= 1.03D-03 at cycle   5 NSaved=   5.
 NSaved= 5 IEnMin= 5 EnMin= -309.237183665224     IErMin= 5 ErrMin= 1.03D-03
 ErrMax= 1.03D-03 EMaxC= 1.00D-01 BMatC= 5.36D-04 BMatP= 1.32D-02
 IDIUse=3 WtCom= 9.90D-01 WtEn= 1.03D-02
 Coeff-Com: -0.185D-02-0.820D-02 0.673D-01 0.172D+00 0.771D+00
 Coeff-En:   0.000D+00 0.000D+00 0.000D+00 0.000D+00 0.100D+01
 Coeff:     -0.184D-02-0.812D-02 0.666D-01 0.170D+00 0.774D+00
 Gap=     0.321 Goal=   None    Shift=    0.000
 Gap=     0.212 Goal=   None    Shift=    0.000
 RMSDP=1.02D-04 MaxDP=7.16D-03 DE=-2.75D-03 OVMax= 1.19D-02

 Cycle   6  Pass 1  IDiag  1:
 RMSU=  4.18D-05    CP:  9.09D-01  7.07D-01  9.23D-01  8.88D-01  1.12D+00
 E= -309.237471320616     Delta-E=       -0.000287655392 Rises=F Damp=F
 DIIS: error= 5.42D-04 at cycle   6 NSaved=   6.
 NSaved= 6 IEnMin= 6 EnMin= -309.237471320616     IErMin= 6 ErrMin= 5.42D-04
 ErrMax= 5.42D-04 EMaxC= 1.00D-01 BMatC= 3.48D-04 BMatP= 5.36D-04
 IDIUse=3 WtCom= 9.95D-01 WtEn= 5.42D-03
 Coeff-Com:  0.942D-02-0.274D-01-0.526D-01-0.133D+00 0.367D+00 0.837D+00
 Coeff-En:   0.000D+00 0.000D+00 0.000D+00 0.000D+00 0.000D+00 0.100D+01
 Coeff:      0.937D-02-0.273D-01-0.523D-01-0.132D+00 0.365D+00 0.838D+00
 Gap=     0.324 Goal=   None    Shift=    0.000
 Gap=     0.214 Goal=   None    Shift=    0.000
 RMSDP=7.81D-05 MaxDP=3.51D-03 DE=-2.88D-04 OVMax= 1.43D-02

 Cycle   7  Pass 1  IDiag  1:
 RMSU=  2.21D-05    CP:  9.10D-01  6.89D-01  9.34D-01  9.09D-01  1.40D+00
                    CP:  1.43D+00
 E= -309.237662813517     Delta-E=       -0.000191492901 Rises=F Damp=F
 DIIS: error= 4.08D-04 at cycle   7 NSaved=   7.
 NSaved= 7 IEnMin= 7 EnMin= -309.237662813517     IErMin= 7 ErrMin= 4.08D-04
 ErrMax= 4.08D-04 EMaxC= 1.00D-01 BMatC= 1.02D-04 BMatP= 3.48D-04
 IDIUse=3 WtCom= 9.96D-01 WtEn= 4.08D-03
 Coeff-Com:  0.470D-02-0.697D-02-0.237D-01-0.106D+00-0.109D+00 0.358D+00
 Coeff-Com:  0.882D+00
 Coeff-En:   0.000D+00 0.000D+00 0.000D+00 0.000D+00 0.000D+00 0.000D+00
 Coeff-En:   0.100D+01
 Coeff:      0.468D-02-0.694D-02-0.236D-01-0.106D+00-0.108D+00 0.357D+00
 Coeff:      0.883D+00
 Gap=     0.326 Goal=   None    Shift=    0.000
 Gap=     0.215 Goal=   None    Shift=    0.000
 RMSDP=5.20D-05 MaxDP=2.08D-03 DE=-1.91D-04 OVMax= 9.39D-03

 Cycle   8  Pass 1  IDiag  1:
 RMSU=  1.58D-05    CP:  9.11D-01  6.79D-01  9.40D-01  8.94D-01  1.51D+00
                    CP:  1.81D+00  1.58D+00
 E= -309.237744224775     Delta-E=       -0.000081411258 Rises=F Damp=F
 DIIS: error= 1.87D-04 at cycle   8 NSaved=   8.
 NSaved= 8 IEnMin= 8 EnMin= -309.237744224775     IErMin= 8 ErrMin= 1.87D-04
 ErrMax= 1.87D-04 EMaxC= 1.00D-01 BMatC= 2.67D-05 BMatP= 1.02D-04
 IDIUse=3 WtCom= 9.98D-01 WtEn= 1.87D-03
 Coeff-Com: -0.387D-03 0.336D-02 0.145D-01 0.219D-02-0.132D+00-0.916D-01
 Coeff-Com:  0.208D+00 0.996D+00
 Coeff-En:   0.000D+00 0.000D+00 0.000D+00 0.000D+00 0.000D+00 0.000D+00
 Coeff-En:   0.000D+00 0.100D+01
 Coeff:     -0.387D-03 0.336D-02 0.144D-01 0.218D-02-0.131D+00-0.915D-01
 Coeff:      0.207D+00 0.996D+00
 Gap=     0.326 Goal=   None    Shift=    0.000
 Gap=     0.216 Goal=   None    Shift=    0.000
 RMSDP=3.64D-05 MaxDP=1.45D-03 DE=-8.14D-05 OVMax= 8.29D-03

 Cycle   9  Pass 1  IDiag  1:
 RMSU=  6.46D-06    CP:  9.11D-01  6.75D-01  9.43D-01  8.77D-01  1.52D+00
                    CP:  2.10D+00  2.12D+00  1.55D+00
 E= -309.237777189096     Delta-E=       -0.000032964321 Rises=F Damp=F
 DIIS: error= 8.95D-05 at cycle   9 NSaved=   9.
 NSaved= 9 IEnMin= 9 EnMin= -309.237777189096     IErMin= 9 ErrMin= 8.95D-05
 ErrMax= 8.95D-05 EMaxC= 1.00D-01 BMatC= 1.24D-05 BMatP= 2.67D-05
 IDIUse=1 WtCom= 1.00D+00 WtEn= 0.00D+00
 Coeff-Com: -0.133D-02 0.203D-02 0.188D-01 0.417D-01 0.830D-02-0.145D+00
 Coeff-Com: -0.385D+00 0.312D+00 0.115D+01
 Coeff:     -0.133D-02 0.203D-02 0.188D-01 0.417D-01 0.830D-02-0.145D+00
 Coeff:     -0.385D+00 0.312D+00 0.115D+01
 Gap=     0.327 Goal=   None    Shift=    0.000
 Gap=     0.216 Goal=   None    Shift=    0.000
 RMSDP=3.41D-05 MaxDP=1.30D-03 DE=-3.30D-05 OVMax= 7.11D-03

 Cycle  10  Pass 1  IDiag  1:
 RMSU=  4.01D-06    CP:  9.11D-01  6.71D-01  9.47D-01  8.58D-01  1.51D+00
                    CP:  2.34D+00  2.62D+00  2.23D+00  1.69D+00
 E= -309.237795468681     Delta-E=       -0.000018279585 Rises=F Damp=F
 DIIS: error= 4.13D-05 at cycle  10 NSaved=  10.
 NSaved=10 IEnMin=10 EnMin= -309.237795468681     IErMin=10 ErrMin= 4.13D-05
 ErrMax= 4.13D-05 EMaxC= 1.00D-01 BMatC= 2.49D-06 BMatP= 1.24D-05
 IDIUse=1 WtCom= 1.00D+00 WtEn= 0.00D+00
 Coeff-Com:  0.773D-03-0.195D-02-0.491D-02-0.119D-01 0.216D-01 0.736D-01
 Coeff-Com:  0.528D-02-0.242D+00-0.443D+00 0.160D+01
 Coeff:      0.773D-03-0.195D-02-0.491D-02-0.119D-01 0.216D-01 0.736D-01
 Coeff:      0.528D-02-0.242D+00-0.443D+00 0.160D+01
 Gap=     0.327 Goal=   None    Shift=    0.000
 Gap=     0.216 Goal=   None    Shift=    0.000
 RMSDP=2.29D-05 MaxDP=1.11D-03 DE=-1.83D-05 OVMax= 4.46D-03

 Cycle  11  Pass 1  IDiag  1:
 RMSU=  2.26D-06    CP:  9.11D-01  6.68D-01  9.49D-01  8.47D-01  1.51D+00
                    CP:  2.49D+00  2.88D+00  2.63D+00  2.37D+00  2.16D+00
 E= -309.237801679844     Delta-E=       -0.000006211163 Rises=F Damp=F
 DIIS: error= 2.24D-05 at cycle  11 NSaved=  11.
 NSaved=11 IEnMin=11 EnMin= -309.237801679844     IErMin=11 ErrMin= 2.24D-05
 ErrMax= 2.24D-05 EMaxC= 1.00D-01 BMatC= 4.27D-07 BMatP= 2.49D-06
 IDIUse=1 WtCom= 1.00D+00 WtEn= 0.00D+00
 Coeff-Com:  0.302D-03-0.495D-03-0.423D-02-0.949D-02-0.471D-02 0.389D-01
 Coeff-Com:  0.867D-01-0.542D-01-0.300D+00-0.764D-01 0.132D+01
 Coeff:      0.302D-03-0.495D-03-0.423D-02-0.949D-02-0.471D-02 0.389D-01
 Coeff:      0.867D-01-0.542D-01-0.300D+00-0.764D-01 0.132D+01
 Gap=     0.328 Goal=   None    Shift=    0.000
 Gap=     0.216 Goal=   None    Shift=    0.000
 RMSDP=1.03D-05 MaxDP=4.28D-04 DE=-6.21D-06 OVMax= 2.00D-03

 Cycle  12  Pass 1  IDiag  1:
 RMSU=  1.13D-06    CP:  9.11D-01  6.66D-01  9.49D-01  8.42D-01  1.50D+00
                    CP:  2.55D+00  2.98D+00  2.79D+00  2.72D+00  2.89D+00
                    CP:  1.61D+00
 E= -309.237803109923     Delta-E=       -0.000001430079 Rises=F Damp=F
 DIIS: error= 1.18D-05 at cycle  12 NSaved=  12.
 NSaved=12 IEnMin=12 EnMin= -309.237803109923     IErMin=12 ErrMin= 1.18D-05
 ErrMax= 1.18D-05 EMaxC= 1.00D-01 BMatC= 1.39D-07 BMatP= 4.27D-07
 IDIUse=1 WtCom= 1.00D+00 WtEn= 0.00D+00
 Coeff-Com: -0.215D-03 0.546D-03 0.673D-03 0.245D-02-0.580D-02-0.162D-01
 Coeff-Com:  0.933D-02 0.579D-01 0.986D-01-0.448D+00 0.176D+00 0.112D+01
 Coeff:     -0.215D-03 0.546D-03 0.673D-03 0.245D-02-0.580D-02-0.162D-01
 Coeff:      0.933D-02 0.579D-01 0.986D-01-0.448D+00 0.176D+00 0.112D+01
 Gap=     0.328 Goal=   None    Shift=    0.000
 Gap=     0.216 Goal=   None    Shift=    0.000
 RMSDP=3.36D-06 MaxDP=1.36D-04 DE=-1.43D-06 OVMax= 9.58D-04

 Cycle  13  Pass 1  IDiag  1:
 RMSU=  7.16D-07    CP:  9.11D-01  6.66D-01  9.49D-01  8.42D-01  1.50D+00
                    CP:  2.56D+00  3.00D+00  2.83D+00  2.83D+00  3.00D+00
                    CP:  2.01D+00  1.71D+00
 E= -309.237803439027     Delta-E=       -0.000000329104 Rises=F Damp=F
 DIIS: error= 6.90D-06 at cycle  13 NSaved=  13.
 NSaved=13 IEnMin=13 EnMin= -309.237803439027     IErMin=13 ErrMin= 6.90D-06
 ErrMax= 6.90D-06 EMaxC= 1.00D-01 BMatC= 5.51D-08 BMatP= 1.39D-07
 IDIUse=1 WtCom= 1.00D+00 WtEn= 0.00D+00
 Coeff-Com: -0.169D-03 0.351D-03 0.126D-02 0.357D-02 0.717D-03-0.187D-01
 Coeff-Com: -0.196D-01 0.258D-01 0.131D+00-0.106D+00-0.386D+00 0.278D+00
 Coeff-Com:  0.109D+01
 Coeff:     -0.169D-03 0.351D-03 0.126D-02 0.357D-02 0.717D-03-0.187D-01
 Coeff:     -0.196D-01 0.258D-01 0.131D+00-0.106D+00-0.386D+00 0.278D+00
 Coeff:      0.109D+01
 Gap=     0.328 Goal=   None    Shift=    0.000
 Gap=     0.216 Goal=   None    Shift=    0.000
 RMSDP=2.16D-06 MaxDP=1.06D-04 DE=-3.29D-07 OVMax= 6.31D-04

 Cycle  14  Pass 1  IDiag  1:
 RMSU=  3.67D-07    CP:  9.11D-01  6.67D-01  9.49D-01  8.42D-01  1.50D+00
                    CP:  2.56D+00  3.00D+00  2.84D+00  2.91D+00  3.00D+00
                    CP:  2.26D+00  2.34D+00  1.76D+00
 E= -309.237803560752     Delta-E=       -0.000000121725 Rises=F Damp=F
 DIIS: error= 3.69D-06 at cycle  14 NSaved=  14.
 NSaved=14 IEnMin=14 EnMin= -309.237803560752     IErMin=14 ErrMin= 3.69D-06
 ErrMax= 3.69D-06 EMaxC= 1.00D-01 BMatC= 1.55D-08 BMatP= 5.51D-08
 IDIUse=1 WtCom= 1.00D+00 WtEn= 0.00D+00
 Coeff-Com:  0.608D-04-0.137D-03-0.403D-03-0.867D-03 0.219D-02 0.291D-02
 Coeff-Com:  0.231D-02-0.225D-01-0.240D-01 0.122D+00-0.483D-01-0.356D+00
 Coeff-Com:  0.552D-01 0.127D+01
 Coeff:      0.608D-04-0.137D-03-0.403D-03-0.867D-03 0.219D-02 0.291D-02
 Coeff:      0.231D-02-0.225D-01-0.240D-01 0.122D+00-0.483D-01-0.356D+00
 Coeff:      0.552D-01 0.127D+01
 Gap=     0.328 Goal=   None    Shift=    0.000
 Gap=     0.216 Goal=   None    Shift=    0.000
 RMSDP=1.33D-06 MaxDP=7.18D-05 DE=-1.22D-07 OVMax= 3.70D-04

 Cycle  15  Pass 1  IDiag  1:
 RMSU=  2.16D-07    CP:  9.11D-01  6.67D-01  9.49D-01  8.43D-01  1.50D+00
                    CP:  2.56D+00  3.00D+00  2.85D+00  2.94D+00  3.00D+00
                    CP:  2.38D+00  2.74D+00  2.26D+00  1.52D+00
 E= -309.237803595935     Delta-E=       -0.000000035183 Rises=F Damp=F
 DIIS: error= 1.45D-06 at cycle  15 NSaved=  15.
 NSaved=15 IEnMin=15 EnMin= -309.237803595935     IErMin=15 ErrMin= 1.45D-06
 ErrMax= 1.45D-06 EMaxC= 1.00D-01 BMatC= 3.62D-09 BMatP= 1.55D-08
 IDIUse=1 WtCom= 1.00D+00 WtEn= 0.00D+00
 Coeff-Com:  0.375D-04-0.775D-04-0.426D-03-0.933D-03 0.968D-04 0.452D-02
 Coeff-Com:  0.749D-02-0.930D-02-0.336D-01 0.214D-01 0.119D+00-0.780D-01
 Coeff-Com: -0.295D+00-0.113D-01 0.128D+01
 Coeff:      0.375D-04-0.775D-04-0.426D-03-0.933D-03 0.968D-04 0.452D-02
 Coeff:      0.749D-02-0.930D-02-0.336D-01 0.214D-01 0.119D+00-0.780D-01
 Coeff:     -0.295D+00-0.113D-01 0.128D+01
 Gap=     0.328 Goal=   None    Shift=    0.000
 Gap=     0.216 Goal=   None    Shift=    0.000
 RMSDP=6.79D-07 MaxDP=3.57D-05 DE=-3.52D-08 OVMax= 1.47D-04

 Cycle  16  Pass 1  IDiag  1:
 RMSU=  9.68D-08    CP:  9.11D-01  6.67D-01  9.49D-01  8.43D-01  1.50D+00
                    CP:  2.56D+00  3.00D+00  2.85D+00  2.96D+00  3.00D+00
                    CP:  2.44D+00  2.90D+00  2.46D+00  1.87D+00  1.62D+00
 E= -309.237803602318     Delta-E=       -0.000000006383 Rises=F Damp=F
 DIIS: error= 5.35D-07 at cycle  16 NSaved=  16.
 NSaved=16 IEnMin=16 EnMin= -309.237803602318     IErMin=16 ErrMin= 5.35D-07
 ErrMax= 5.35D-07 EMaxC= 1.00D-01 BMatC= 5.11D-10 BMatP= 3.62D-09
 IDIUse=1 WtCom= 1.00D+00 WtEn= 0.00D+00
 Coeff-Com: -0.121D-04 0.272D-04 0.168D-04 0.845D-04-0.285D-03-0.323D-03
 Coeff-Com:  0.917D-03 0.254D-02 0.108D-02-0.233D-01 0.286D-01 0.592D-01
 Coeff-Com: -0.489D-01-0.264D+00 0.158D+00 0.109D+01
 Coeff:     -0.121D-04 0.272D-04 0.168D-04 0.845D-04-0.285D-03-0.323D-03
 Coeff:      0.917D-03 0.254D-02 0.108D-02-0.233D-01 0.286D-01 0.592D-01
 Coeff:     -0.489D-01-0.264D+00 0.158D+00 0.109D+01
 Gap=     0.328 Goal=   None    Shift=    0.000
 Gap=     0.216 Goal=   None    Shift=    0.000
 RMSDP=2.15D-07 MaxDP=1.11D-05 DE=-6.38D-09 OVMax= 4.70D-05

 Cycle  17  Pass 1  IDiag  1:
 RMSU=  4.76D-08    CP:  9.11D-01  6.67D-01  9.49D-01  8.43D-01  1.50D+00
                    CP:  2.56D+00  3.00D+00  2.84D+00  2.96D+00  3.00D+00
                    CP:  2.46D+00  2.95D+00  2.52D+00  1.97D+00  1.84D+00
                    CP:  1.16D+00
 E= -309.237803602980     Delta-E=       -0.000000000662 Rises=F Damp=F
 DIIS: error= 1.58D-07 at cycle  17 NSaved=  17.
 NSaved=17 IEnMin=17 EnMin= -309.237803602980     IErMin=17 ErrMin= 1.58D-07
 ErrMax= 1.58D-07 EMaxC= 1.00D-01 BMatC= 4.95D-11 BMatP= 5.11D-10
 IDIUse=1 WtCom= 1.00D+00 WtEn= 0.00D+00
 Coeff-Com: -0.542D-05 0.119D-04 0.371D-04 0.817D-04-0.681D-04-0.511D-03
 Coeff-Com: -0.352D-03 0.120D-02 0.313D-02-0.639D-02-0.638D-02 0.180D-01
 Coeff-Com:  0.231D-01-0.397D-01-0.122D+00 0.193D+00 0.937D+00
 Coeff:     -0.542D-05 0.119D-04 0.371D-04 0.817D-04-0.681D-04-0.511D-03
 Coeff:     -0.352D-03 0.120D-02 0.313D-02-0.639D-02-0.638D-02 0.180D-01
 Coeff:      0.231D-01-0.397D-01-0.122D+00 0.193D+00 0.937D+00
 Gap=     0.328 Goal=   None    Shift=    0.000
 Gap=     0.216 Goal=   None    Shift=    0.000
 RMSDP=4.14D-08 MaxDP=1.94D-06 DE=-6.62D-10 OVMax= 8.76D-06

 Cycle  18  Pass 1  IDiag  1:
 RMSU=  1.35D-08    CP:  9.11D-01  6.67D-01  9.49D-01  8.43D-01  1.50D+00
                    CP:  2.56D+00  3.00D+00  2.84D+00  2.96D+00  3.00D+00
                    CP:  2.47D+00  2.96D+00  2.53D+00  1.98D+00  1.85D+00
                    CP:  1.19D+00  1.29D+00
 E= -309.237803603019     Delta-E=       -0.000000000040 Rises=F Damp=F
 DIIS: error= 6.48D-08 at cycle  18 NSaved=  18.
 NSaved=18 IEnMin=18 EnMin= -309.237803603019     IErMin=18 ErrMin= 6.48D-08
 ErrMax= 6.48D-08 EMaxC= 1.00D-01 BMatC= 9.81D-12 BMatP= 4.95D-11
 IDIUse=1 WtCom= 1.00D+00 WtEn= 0.00D+00
 Coeff-Com:  0.703D-06-0.141D-05 0.555D-05 0.201D-05 0.147D-04-0.771D-04
 Coeff-Com: -0.159D-03-0.665D-04 0.568D-03 0.178D-02-0.605D-02-0.375D-02
 Coeff-Com:  0.143D-01 0.297D-01-0.634D-01-0.119D+00 0.290D+00 0.856D+00
 Coeff:      0.703D-06-0.141D-05 0.555D-05 0.201D-05 0.147D-04-0.771D-04
 Coeff:     -0.159D-03-0.665D-04 0.568D-03 0.178D-02-0.605D-02-0.375D-02
 Coeff:      0.143D-01 0.297D-01-0.634D-01-0.119D+00 0.290D+00 0.856D+00
 Gap=     0.328 Goal=   None    Shift=    0.000
 Gap=     0.216 Goal=   None    Shift=    0.000
 RMSDP=1.25D-08 MaxDP=4.81D-07 DE=-3.98D-11 OVMax= 1.71D-06

 Cycle  19  Pass 1  IDiag  1:
 RMSU=  5.00D-09    CP:  9.11D-01  6.67D-01  9.49D-01  8.43D-01  1.50D+00
                    CP:  2.56D+00  3.00D+00  2.84D+00  2.96D+00  3.00D+00
                    CP:  2.47D+00  2.96D+00  2.53D+00  1.99D+00  1.86D+00
                    CP:  1.21D+00  1.38D+00  1.14D+00
 E= -309.237803603021     Delta-E=       -0.000000000001 Rises=F Damp=F
 DIIS: error= 2.13D-08 at cycle  19 NSaved=  19.
 NSaved=19 IEnMin=19 EnMin= -309.237803603021     IErMin=19 ErrMin= 2.13D-08
 ErrMax= 2.13D-08 EMaxC= 1.00D-01 BMatC= 9.69D-13 BMatP= 9.81D-12
 IDIUse=1 WtCom= 1.00D+00 WtEn= 0.00D+00
 Coeff-Com:  0.839D-06-0.178D-05-0.424D-05-0.917D-05 0.106D-04 0.577D-04
 Coeff-Com:  0.316D-04-0.171D-03-0.332D-03 0.111D-02 0.325D-04-0.297D-02
 Coeff-Com: -0.112D-02 0.917D-02 0.939D-02-0.446D-01-0.953D-01 0.128D+00
 Coeff-Com:  0.997D+00
 Coeff:      0.839D-06-0.178D-05-0.424D-05-0.917D-05 0.106D-04 0.577D-04
 Coeff:      0.316D-04-0.171D-03-0.332D-03 0.111D-02 0.325D-04-0.297D-02
 Coeff:     -0.112D-02 0.917D-02 0.939D-02-0.446D-01-0.953D-01 0.128D+00
 Coeff:      0.997D+00
 Gap=     0.328 Goal=   None    Shift=    0.000
 Gap=     0.216 Goal=   None    Shift=    0.000
 RMSDP=5.48D-09 MaxDP=2.68D-07 DE=-1.48D-12 OVMax= 6.65D-07

 SCF Done:  E(UM062X) =  -309.237803603     A.U. after   19 cycles
             Convg  =    0.5476D-08             -V/T =  2.0041
 <Sx>= 0.0000 <Sy>= 0.0000 <Sz>= 0.5000 <S**2>= 0.7621 S= 0.5060
 <L.S>= 0.000000000000E+00
 KE= 3.079713180560D+02 PE=-1.208843484846D+03 EE= 3.487861069770D+02
 Annihilation of the first spin contaminant:
 S**2 before annihilation     0.7621,   after     0.7501
 Leave Link  502 at Tue May  8 10:58:25 2018, MaxMem=  671088640 cpu:    2567.1
 (Enter /shared/apps/gaussian/G09_LINUX_LINDA/g09/l601.exe)
 Copying SCF densities to generalized density rwf, IOpCl= 1 IROHF=0.

 **********************************************************************

            Population analysis using the SCF density.

 **********************************************************************

 Orbital symmetries:
 Alpha Orbitals:
       Occupied  (A) (A) (A) (A) (A) (A) (A) (A) (A) (A) (A) (A)
                 (A) (A) (A) (A) (A) (A) (A) (A) (A) (A) (A) (A)
                 (A) (A)
       Virtual   (A) (A) (A) (A) (A) (A) (A) (A) (A) (A) (A) (A)
                 (A) (A) (A) (A) (A) (A) (A) (A) (A) (A) (A) (A)
                 (A) (A) (A) (A) (A) (A) (A) (A) (A) (A) (A) (A)
                 (A) (A) (A) (A) (A) (A) (A) (A) (A) (A) (A) (A)
                 (A) (A) (A) (A) (A) (A) (A) (A) (A) (A) (A) (A)
                 (A) (A) (A) (A) (A) (A) (A) (A) (A) (A) (A) (A)
                 (A) (A) (A) (A) (A) (A) (A) (A) (A) (A) (A) (A)
                 (A) (A) (A) (A) (A) (A) (A) (A) (A) (A) (A) (A)
                 (A) (A) (A) (A) (A) (A) (A) (A) (A) (A) (A) (A)
                 (A) (A) (A) (A) (A) (A) (A) (A) (A) (A) (A) (A)
                 (A) (A) (A) (A) (A) (A) (A) (A) (A) (A) (A) (A)
                 (A) (A) (A) (A) (A) (A) (A) (A) (A) (A) (A) (A)
                 (A) (A) (A) (A) (A) (A) (A) (A) (A) (A) (A) (A)
                 (A) (A) (A) (A) (A) (A) (A) (A) (A) (A) (A) (A)
                 (A) (A) (A) (A) (A) (A) (A) (A) (A) (A) (A) (A)
                 (A) (A) (A) (A) (A) (A) (A) (A) (A) (A) (A) (A)
                 (A) (A) (A) (A) (A) (A) (A) (A) (A) (A) (A) (A)
                 (A) (A) (A) (A) (A) (A) (A) (A) (A) (A) (A) (A)
                 (A) (A) (A) (A) (A) (A) (A) (A) (A) (A) (A) (A)
                 (A) (A) (A) (A) (A) (A) (A) (A) (A) (A) (A) (A)
                 (A) (A) (A) (A) (A) (A) (A) (A) (A) (A) (A) (A)
                 (A) (A) (A) (A) (A) (A) (A) (A) (A) (A) (A) (A)
                 (A) (A) (A) (A) (A) (A) (A) (A) (A) (A) (A) (A)
                 (A)
 Beta  Orbitals:
       Occupied  (A) (A) (A) (A) (A) (A) (A) (A) (A) (A) (A) (A)
                 (A) (A) (A) (A) (A) (A) (A) (A) (A) (A) (A) (A)
                 (A)
       Virtual   (A) (A) (A) (A) (A) (A) (A) (A) (A) (A) (A) (A)
                 (A) (A) (A) (A) (A) (A) (A) (A) (A) (A) (A) (A)
                 (A) (A) (A) (A) (A) (A) (A) (A) (A) (A) (A) (A)
                 (A) (A) (A) (A) (A) (A) (A) (A) (A) (A) (A) (A)
                 (A) (A) (A) (A) (A) (A) (A) (A) (A) (A) (A) (A)
                 (A) (A) (A) (A) (A) (A) (A) (A) (A) (A) (A) (A)
                 (A) (A) (A) (A) (A) (A) (A) (A) (A) (A) (A) (A)
                 (A) (A) (A) (A) (A) (A) (A) (A) (A) (A) (A) (A)
                 (A) (A) (A) (A) (A) (A) (A) (A) (A) (A) (A) (A)
                 (A) (A) (A) (A) (A) (A) (A) (A) (A) (A) (A) (A)
                 (A) (A) (A) (A) (A) (A) (A) (A) (A) (A) (A) (A)
                 (A) (A) (A) (A) (A) (A) (A) (A) (A) (A) (A) (A)
                 (A) (A) (A) (A) (A) (A) (A) (A) (A) (A) (A) (A)
                 (A) (A) (A) (A) (A) (A) (A) (A) (A) (A) (A) (A)
                 (A) (A) (A) (A) (A) (A) (A) (A) (A) (A) (A) (A)
                 (A) (A) (A) (A) (A) (A) (A) (A) (A) (A) (A) (A)
                 (A) (A) (A) (A) (A) (A) (A) (A) (A) (A) (A) (A)
                 (A) (A) (A) (A) (A) (A) (A) (A) (A) (A) (A) (A)
                 (A) (A) (A) (A) (A) (A) (A) (A) (A) (A) (A) (A)
                 (A) (A) (A) (A) (A) (A) (A) (A) (A) (A) (A) (A)
                 (A) (A) (A) (A) (A) (A) (A) (A) (A) (A) (A) (A)
                 (A) (A) (A) (A) (A) (A) (A) (A) (A) (A) (A) (A)
                 (A) (A) (A) (A) (A) (A) (A) (A) (A) (A) (A) (A)
                 (A) (A)
 The electronic state is 2-A.
 Alpha  occ. eigenvalues --  -19.73130 -19.69739 -10.53581 -10.53450 -10.53321
 Alpha  occ. eigenvalues --  -10.52727  -1.32897  -1.00799  -0.89349  -0.81358
 Alpha  occ. eigenvalues --   -0.71206  -0.67924  -0.64530  -0.60460  -0.57335
 Alpha  occ. eigenvalues --   -0.53834  -0.49257  -0.48330  -0.46442  -0.42451
 Alpha  occ. eigenvalues --   -0.39992  -0.39514  -0.38721  -0.38352  -0.37545
 Alpha  occ. eigenvalues --   -0.31422
 Alpha virt. eigenvalues --    0.01329   0.02772   0.03274   0.03654   0.05647
 Alpha virt. eigenvalues --    0.06244   0.06828   0.07123   0.07676   0.08767
 Alpha virt. eigenvalues --    0.10361   0.10630   0.10731   0.12502   0.14729
 Alpha virt. eigenvalues --    0.15719   0.16025   0.17819   0.18698   0.19094
 Alpha virt. eigenvalues --    0.19752   0.20407   0.21388   0.21636   0.21662
 Alpha virt. eigenvalues --    0.23427   0.23741   0.24130   0.26486   0.27472
 Alpha virt. eigenvalues --    0.28233   0.29179   0.29567   0.30392   0.31261
 Alpha virt. eigenvalues --    0.31901   0.34230   0.36272   0.40933   0.42032
 Alpha virt. eigenvalues --    0.43302   0.44936   0.46745   0.47419   0.48430
 Alpha virt. eigenvalues --    0.49745   0.51339   0.52213   0.54178   0.56099
 Alpha virt. eigenvalues --    0.56754   0.57636   0.58853   0.60888   0.61212
 Alpha virt. eigenvalues --    0.62837   0.63199   0.64621   0.65650   0.66045
 Alpha virt. eigenvalues --    0.67031   0.68024   0.69279   0.70523   0.74722
 Alpha virt. eigenvalues --    0.76926   0.79386   0.79652   0.79930   0.82103
 Alpha virt. eigenvalues --    0.85654   0.86963   0.88659   0.89211   0.92059
 Alpha virt. eigenvalues --    0.93173   0.94224   0.98048   0.99071   1.03008
 Alpha virt. eigenvalues --    1.03493   1.05172   1.08385   1.10614   1.11716
 Alpha virt. eigenvalues --    1.12594   1.13974   1.14559   1.16777   1.18242
 Alpha virt. eigenvalues --    1.19430   1.20741   1.21367   1.22578   1.23103
 Alpha virt. eigenvalues --    1.24490   1.26015   1.27655   1.29701   1.30484
 Alpha virt. eigenvalues --    1.31082   1.31910   1.34696   1.35921   1.38961
 Alpha virt. eigenvalues --    1.40490   1.42908   1.43790   1.44519   1.45287
 Alpha virt. eigenvalues --    1.45542   1.46833   1.48596   1.51389   1.52767
 Alpha virt. eigenvalues --    1.53151   1.54488   1.57229   1.58321   1.59258
 Alpha virt. eigenvalues --    1.60789   1.61758   1.62885   1.63004   1.65720
 Alpha virt. eigenvalues --    1.69596   1.69696   1.73295   1.78740   1.86143
 Alpha virt. eigenvalues --    1.89214   2.03389   2.15868   2.24153   2.33394
 Alpha virt. eigenvalues --    2.38994   2.44910   2.47930   2.49005   2.52383
 Alpha virt. eigenvalues --    2.55903   2.58725   2.61201   2.63847   2.66927
 Alpha virt. eigenvalues --    2.72504   2.74383   2.76275   2.79082   2.82460
 Alpha virt. eigenvalues --    2.82920   2.84906   2.87456   2.90793   2.91578
 Alpha virt. eigenvalues --    2.92928   2.98135   3.03125   3.03834   3.06087
 Alpha virt. eigenvalues --    3.06950   3.13248   3.14435   3.15799   3.18381
 Alpha virt. eigenvalues --    3.21989   3.24231   3.28042   3.29098   3.31677
 Alpha virt. eigenvalues --    3.35052   3.35941   3.36368   3.38793   3.40505
 Alpha virt. eigenvalues --    3.47404   3.50495   3.52827   3.55804   3.58697
 Alpha virt. eigenvalues --    3.60121   3.61606   3.61965   3.63577   3.66391
 Alpha virt. eigenvalues --    3.67618   3.70000   3.71780   3.74422   3.76299
 Alpha virt. eigenvalues --    3.78455   3.80846   3.83894   3.86061   3.88312
 Alpha virt. eigenvalues --    3.90979   3.93927   3.95862   3.97502   3.98004
 Alpha virt. eigenvalues --    4.01270   4.03061   4.06012   4.07270   4.10341
 Alpha virt. eigenvalues --    4.10744   4.12908   4.16219   4.17851   4.18202
 Alpha virt. eigenvalues --    4.19840   4.22912   4.24255   4.28187   4.32578
 Alpha virt. eigenvalues --    4.34546   4.37476   4.40383   4.41174   4.43839
 Alpha virt. eigenvalues --    4.44993   4.49978   4.52351   4.53240   4.54889
 Alpha virt. eigenvalues --    4.57800   4.60532   4.61297   4.65016   4.65768
 Alpha virt. eigenvalues --    4.68062   4.76582   4.78004   4.80377   4.82776
 Alpha virt. eigenvalues --    5.01019   5.01999   5.04035   5.04765   5.15287
 Alpha virt. eigenvalues --    5.16787   5.19176   5.19745   5.22865   5.32607
 Alpha virt. eigenvalues --    5.36875   5.38814   5.43191   5.44689   5.50559
 Alpha virt. eigenvalues --    5.51811   5.54395   5.56287   5.57484   5.60403
 Alpha virt. eigenvalues --    5.67637   5.86336   6.34172   6.70064   6.73643
 Alpha virt. eigenvalues --    6.77131   6.87308   6.88847   6.98046   7.03293
 Alpha virt. eigenvalues --    7.18582   7.29073   7.44379   7.58758   7.90741
 Alpha virt. eigenvalues --    8.02783  24.16057  24.26630  24.33951  24.41933
 Alpha virt. eigenvalues --   49.95312  50.02345
  Beta  occ. eigenvalues --  -19.72640 -19.68654 -10.53465 -10.53317 -10.53235
  Beta  occ. eigenvalues --  -10.52728  -1.30556  -0.97385  -0.89085  -0.80782
  Beta  occ. eigenvalues --   -0.70349  -0.66845  -0.63874  -0.58628  -0.53605
  Beta  occ. eigenvalues --   -0.51095  -0.48940  -0.47948  -0.45884  -0.42091
  Beta  occ. eigenvalues --   -0.39546  -0.38771  -0.37594  -0.36997  -0.31838
  Beta virt. eigenvalues --   -0.10221   0.01497   0.02809   0.03311   0.03731
  Beta virt. eigenvalues --    0.05707   0.06296   0.06897   0.07198   0.07751
  Beta virt. eigenvalues --    0.08812   0.10412   0.10733   0.11079   0.12551
  Beta virt. eigenvalues --    0.14928   0.15780   0.16144   0.18271   0.18811
  Beta virt. eigenvalues --    0.19317   0.20258   0.20599   0.21618   0.21737
  Beta virt. eigenvalues --    0.22030   0.23686   0.23835   0.24514   0.26682
  Beta virt. eigenvalues --    0.27866   0.28359   0.29286   0.29951   0.30509
  Beta virt. eigenvalues --    0.31355   0.31849   0.34260   0.36510   0.41304
  Beta virt. eigenvalues --    0.42345   0.43396   0.45000   0.46819   0.47488
  Beta virt. eigenvalues --    0.48669   0.50135   0.51605   0.52469   0.54334
  Beta virt. eigenvalues --    0.56194   0.56885   0.57725   0.59099   0.61009
  Beta virt. eigenvalues --    0.61244   0.63101   0.63394   0.64887   0.65822
  Beta virt. eigenvalues --    0.66358   0.67185   0.68071   0.69296   0.70544
  Beta virt. eigenvalues --    0.74891   0.76943   0.79399   0.79598   0.79960
  Beta virt. eigenvalues --    0.82177   0.85683   0.87004   0.88666   0.89539
  Beta virt. eigenvalues --    0.92212   0.93186   0.94672   0.98089   0.99327
  Beta virt. eigenvalues --    1.03220   1.04058   1.06625   1.08648   1.10722
  Beta virt. eigenvalues --    1.12121   1.12717   1.14308   1.14904   1.17574
  Beta virt. eigenvalues --    1.18347   1.19669   1.20906   1.21523   1.22742
  Beta virt. eigenvalues --    1.23461   1.24693   1.26274   1.27692   1.29756
  Beta virt. eigenvalues --    1.30807   1.31360   1.32317   1.34935   1.36095
  Beta virt. eigenvalues --    1.39621   1.40587   1.43032   1.43934   1.44716
  Beta virt. eigenvalues --    1.45398   1.45804   1.47267   1.48894   1.51862
  Beta virt. eigenvalues --    1.53164   1.53458   1.54726   1.57358   1.58741
  Beta virt. eigenvalues --    1.59761   1.60929   1.61862   1.62995   1.63144
  Beta virt. eigenvalues --    1.66006   1.69740   1.70051   1.73430   1.78955
  Beta virt. eigenvalues --    1.87557   1.90275   2.04764   2.16200   2.24771
  Beta virt. eigenvalues --    2.33757   2.39041   2.45853   2.48036   2.49111
  Beta virt. eigenvalues --    2.52700   2.55931   2.58821   2.61585   2.63954
  Beta virt. eigenvalues --    2.67305   2.72280   2.74755   2.76331   2.79329
  Beta virt. eigenvalues --    2.81847   2.82919   2.84654   2.87862   2.90958
  Beta virt. eigenvalues --    2.92112   2.93174   2.98168   3.03442   3.04166
  Beta virt. eigenvalues --    3.06298   3.08055   3.13896   3.14525   3.15984
  Beta virt. eigenvalues --    3.18890   3.22460   3.24683   3.28874   3.29680
  Beta virt. eigenvalues --    3.32142   3.35235   3.36010   3.36368   3.39159
  Beta virt. eigenvalues --    3.41227   3.48454   3.52725   3.53404   3.57201
  Beta virt. eigenvalues --    3.59166   3.60638   3.61850   3.62787   3.65055
  Beta virt. eigenvalues --    3.66879   3.68524   3.70880   3.72180   3.74785
  Beta virt. eigenvalues --    3.77153   3.78997   3.80949   3.84494   3.86221
  Beta virt. eigenvalues --    3.89058   3.91107   3.94369   3.96128   3.97529
  Beta virt. eigenvalues --    3.98382   4.01357   4.03270   4.06489   4.07672
  Beta virt. eigenvalues --    4.10713   4.11312   4.13219   4.16770   4.17908
  Beta virt. eigenvalues --    4.18411   4.19921   4.23207   4.24349   4.28447
  Beta virt. eigenvalues --    4.33443   4.34754   4.37925   4.40660   4.41540
  Beta virt. eigenvalues --    4.43903   4.45652   4.49955   4.52659   4.53375
  Beta virt. eigenvalues --    4.55415   4.57798   4.60852   4.61862   4.65560
  Beta virt. eigenvalues --    4.66238   4.68513   4.76846   4.78289   4.80846
  Beta virt. eigenvalues --    4.83340   5.02758   5.03831   5.04512   5.06717
  Beta virt. eigenvalues --    5.16023   5.17723   5.20447   5.21768   5.23566
  Beta virt. eigenvalues --    5.32893   5.37052   5.39882   5.43560   5.45020
  Beta virt. eigenvalues --    5.50565   5.53130   5.55436   5.56377   5.57655
  Beta virt. eigenvalues --    5.60490   5.67914   5.86858   6.34645   6.71088
  Beta virt. eigenvalues --    6.77641   6.82399   6.88365   6.91295   6.99996
  Beta virt. eigenvalues --    7.06118   7.19055   7.29780   7.46779   7.61001
  Beta virt. eigenvalues --    7.90276   8.04550  24.16307  24.26943  24.34028
  Beta virt. eigenvalues --   24.41972  49.94919  50.01819
          Condensed to atoms (all electrons):
              1          2          3          4          5          6
     1  O    8.515415   0.013283  -0.026615   0.002794   0.005841  -0.021085
     2  O    0.013283   7.806713   0.003181   0.002114   0.004855   0.005728
     3  C   -0.026615   0.003181   5.735475  -0.132980  -0.072656   0.127749
     4  C    0.002794   0.002114  -0.132980   5.308739   0.136685   0.046479
     5  C    0.005841   0.004855  -0.072656   0.136685   5.554672  -0.105823
     6  C   -0.021085   0.005728   0.127749   0.046479  -0.105823   5.405997
     7  H   -0.046541   0.229309   0.002337  -0.000893  -0.004186   0.002151
     8  H   -0.145000   0.035513   0.328479   0.000353  -0.033846  -0.008075
     9  H    0.007365   0.000455   0.355141   0.005548   0.029280  -0.034160
    10  H    0.002420  -0.001523   0.408876   0.001777  -0.056541   0.018480
    11  H   -0.000027  -0.000011   0.002233   0.410325   0.023146  -0.055019
    12  H   -0.000013  -0.000004   0.001925   0.398777  -0.027439  -0.002939
    13  H   -0.000112   0.000021   0.001262   0.401851  -0.025267  -0.005769
    14  H   -0.001335   0.000135  -0.022991  -0.011560   0.406079  -0.020860
    15  H   -0.001258  -0.000273  -0.058254   0.001169   0.486089  -0.068841
    16  H    0.000006   0.000079  -0.009079  -0.043986  -0.039046   0.452695
    17  H    0.001190   0.001594  -0.005333  -0.046232  -0.055208   0.452371
              7          8          9         10         11         12
     1  O   -0.046541  -0.145000   0.007365   0.002420  -0.000027  -0.000013
     2  O    0.229309   0.035513   0.000455  -0.001523  -0.000011  -0.000004
     3  C    0.002337   0.328479   0.355141   0.408876   0.002233   0.001925
     4  C   -0.000893   0.000353   0.005548   0.001777   0.410325   0.398777
     5  C   -0.004186  -0.033846   0.029280  -0.056541   0.023146  -0.027439
     6  C    0.002151  -0.008075  -0.034160   0.018480  -0.055019  -0.002939
     7  H    0.546465  -0.000606  -0.000012   0.000000   0.000001   0.000001
     8  H   -0.000606   0.511802  -0.032658  -0.013784   0.000019  -0.000009
     9  H   -0.000012  -0.032658   0.538528  -0.022769  -0.000017   0.000003
    10  H    0.000000  -0.013784  -0.022769   0.520310   0.000014  -0.000019
    11  H    0.000001   0.000019  -0.000017   0.000014   0.550238  -0.023998
    12  H    0.000001  -0.000009   0.000003  -0.000019  -0.023998   0.556601
    13  H    0.000003  -0.000049  -0.000031  -0.000010  -0.025359  -0.034245
    14  H   -0.000021   0.006109  -0.008464  -0.004257  -0.000029   0.002315
    15  H    0.000108  -0.005042   0.005516  -0.005104  -0.000098  -0.000390
    16  H   -0.000011  -0.001105   0.002206   0.000033  -0.004935  -0.007989
    17  H    0.000033   0.002297  -0.000115  -0.000111  -0.005050   0.006595
             13         14         15         16         17
     1  O   -0.000112  -0.001335  -0.001258   0.000006   0.001190
     2  O    0.000021   0.000135  -0.000273   0.000079   0.001594
     3  C    0.001262  -0.022991  -0.058254  -0.009079  -0.005333
     4  C    0.401851  -0.011560   0.001169  -0.043986  -0.046232
     5  C   -0.025267   0.406079   0.486089  -0.039046  -0.055208
     6  C   -0.005769  -0.020860  -0.068841   0.452695   0.452371
     7  H    0.000003  -0.000021   0.000108  -0.000011   0.000033
     8  H   -0.000049   0.006109  -0.005042  -0.001105   0.002297
     9  H   -0.000031  -0.008464   0.005516   0.002206  -0.000115
    10  H   -0.000010  -0.004257  -0.005104   0.000033  -0.000111
    11  H   -0.025359  -0.000029  -0.000098  -0.004935  -0.005050
    12  H   -0.034245   0.002315  -0.000390  -0.007989   0.006595
    13  H    0.557142  -0.000556   0.001961   0.006167  -0.008526
    14  H   -0.000556   0.531441  -0.030549  -0.007540   0.005556
    15  H    0.001961  -0.030549   0.504647   0.005026  -0.005963
    16  H    0.006167  -0.007540   0.005026   0.528793  -0.034082
    17  H   -0.008526   0.005556  -0.005963  -0.034082   0.553391
 Mulliken atomic charges:
              1
     1  O   -0.306327
     2  O   -0.101170
     3  C   -0.638748
     4  C   -0.480960
     5  C   -0.226634
     6  C   -0.189079
     7  H    0.271860
     8  H    0.355603
     9  H    0.154185
    10  H    0.152208
    11  H    0.128568
    12  H    0.130830
    13  H    0.131519
    14  H    0.156526
    15  H    0.171258
    16  H    0.152768
    17  H    0.137593
 Sum of Mulliken atomic charges =   0.00000
 Mulliken charges with hydrogens summed into heavy atoms:
              1
     1  O    0.049277
     2  O    0.170690
     3  C   -0.332355
     4  C   -0.090044
     5  C    0.101150
     6  C    0.101282
 Sum of Mulliken charges with hydrogens summed into heavy atoms =   0.00000
          Atomic-Atomic Spin Densities.
              1          2          3          4          5          6
     1  O    0.668650  -0.132922  -0.041304  -0.002117  -0.030202   0.016150
     2  O   -0.132922   0.286417   0.013190   0.000143   0.006387  -0.004714
     3  C   -0.041304   0.013190   0.406354  -0.002378  -0.026451   0.005106
     4  C   -0.002117   0.000143  -0.002378   0.000774   0.005360  -0.002216
     5  C   -0.030202   0.006387  -0.026451   0.005360   0.008707  -0.018749
     6  C    0.016150  -0.004714   0.005106  -0.002216  -0.018749   0.019473
     7  H    0.000354   0.001870   0.000031   0.000069  -0.000111  -0.000237
     8  H   -0.015255   0.017104   0.038490   0.001174   0.028646  -0.007755
     9  H    0.000674  -0.000304   0.002963  -0.000428  -0.006240   0.001838
    10  H    0.002108  -0.000982  -0.011589   0.000592   0.005133   0.001758
    11  H    0.000006  -0.000005  -0.000055   0.000220   0.000028  -0.000274
    12  H    0.000005   0.000001   0.000140   0.000364  -0.000343   0.000044
    13  H   -0.000014   0.000000  -0.000071   0.000066   0.000538  -0.000519
    14  H   -0.000431   0.000152  -0.009612  -0.002167   0.014830  -0.003296
    15  H    0.001459  -0.000415  -0.000949  -0.000598  -0.002211   0.003893
    16  H    0.000096  -0.000076  -0.000288   0.001218   0.000337  -0.001139
    17  H   -0.003680   0.001376   0.002642  -0.001041  -0.000084  -0.000177
              7          8          9         10         11         12
     1  O    0.000354  -0.015255   0.000674   0.002108   0.000006   0.000005
     2  O    0.001870   0.017104  -0.000304  -0.000982  -0.000005   0.000001
     3  C    0.000031   0.038490   0.002963  -0.011589  -0.000055   0.000140
     4  C    0.000069   0.001174  -0.000428   0.000592   0.000220   0.000364
     5  C   -0.000111   0.028646  -0.006240   0.005133   0.000028  -0.000343
     6  C   -0.000237  -0.007755   0.001838   0.001758  -0.000274   0.000044
     7  H   -0.010753   0.001226  -0.000009   0.000006   0.000000   0.000000
     8  H    0.001226  -0.078264   0.004342  -0.004463  -0.000001  -0.000001
     9  H   -0.000009   0.004342  -0.019686   0.003759   0.000001  -0.000004
    10  H    0.000006  -0.004463   0.003759  -0.002835   0.000000  -0.000001
    11  H    0.000000  -0.000001   0.000001   0.000000  -0.000167   0.000077
    12  H    0.000000  -0.000001  -0.000004  -0.000001   0.000077  -0.000877
    13  H    0.000000   0.000012   0.000003  -0.000003   0.000002   0.000066
    14  H    0.000001  -0.000013  -0.000424  -0.002219  -0.000007   0.000063
    15  H   -0.000007  -0.001422  -0.000047   0.001162   0.000007  -0.000016
    16  H   -0.000001   0.000138   0.000029   0.000017   0.000021  -0.000012
    17  H    0.000035   0.000387  -0.000012  -0.000103  -0.000017   0.000008
             13         14         15         16         17
     1  O   -0.000014  -0.000431   0.001459   0.000096  -0.003680
     2  O    0.000000   0.000152  -0.000415  -0.000076   0.001376
     3  C   -0.000071  -0.009612  -0.000949  -0.000288   0.002642
     4  C    0.000066  -0.002167  -0.000598   0.001218  -0.001041
     5  C    0.000538   0.014830  -0.002211   0.000337  -0.000084
     6  C   -0.000519  -0.003296   0.003893  -0.001139  -0.000177
     7  H    0.000000   0.000001  -0.000007  -0.000001   0.000035
     8  H    0.000012  -0.000013  -0.001422   0.000138   0.000387
     9  H    0.000003  -0.000424  -0.000047   0.000029  -0.000012
    10  H   -0.000003  -0.002219   0.001162   0.000017  -0.000103
    11  H    0.000002  -0.000007   0.000007   0.000021  -0.000017
    12  H    0.000066   0.000063  -0.000016  -0.000012   0.000008
    13  H   -0.000139   0.000027  -0.000021  -0.000006   0.000029
    14  H    0.000027   0.026864  -0.002842  -0.000341   0.000213
    15  H   -0.000021  -0.002842   0.005434   0.000060  -0.000480
    16  H   -0.000006  -0.000341   0.000060   0.000308  -0.000285
    17  H    0.000029   0.000213  -0.000480  -0.000285   0.001552
 Mulliken atomic spin densities:
              1
     1  O    0.463578
     2  O    0.187222
     3  C    0.376219
     4  C   -0.000965
     5  C   -0.014425
     6  C    0.009187
     7  H   -0.007527
     8  H   -0.015652
     9  H   -0.013545
    10  H   -0.007659
    11  H   -0.000162
    12  H   -0.000486
    13  H   -0.000029
    14  H    0.020799
    15  H    0.003007
    16  H    0.000077
    17  H    0.000361
 Sum of Mulliken atomic spin densities =   1.00000
 Electronic spatial extent (au):  <R**2>=           1061.7064
 Charge=              0.0000 electrons
 Dipole moment (field-independent basis, Debye):
    X=              0.8366    Y=             -1.4223    Z=             -0.3985  Tot=              1.6975
 Quadrupole moment (field-independent basis, Debye-Ang):
   XX=            -44.0987   YY=            -35.5287   ZZ=            -40.1126
   XY=              4.8284   XZ=              1.9857   YZ=              1.4424
 Traceless Quadrupole moment (field-independent basis, Debye-Ang):
   XX=             -4.1854   YY=              4.3846   ZZ=             -0.1993
   XY=              4.8284   XZ=              1.9857   YZ=              1.4424
 Octapole moment (field-independent basis, Debye-Ang**2):
  XXX=            -11.1644  YYY=            -13.4473  ZZZ=             -0.9159  XYY=            -17.7587
  XXY=             -8.2886  XXZ=             -3.0432  XZZ=             -7.0364  YZZ=             -1.9089
  YYZ=             -3.1249  XYZ=             -3.9312
 Hexadecapole moment (field-independent basis, Debye-Ang**3):
 XXXX=          -1019.2224 YYYY=           -303.9702 ZZZZ=            -90.0874 XXXY=             44.6292
 XXXZ=             20.2312 YYYX=             39.6185 YYYZ=             -0.0831 ZZZX=              3.2982
 ZZZY=              3.1008 XXYY=           -191.3282 XXZZ=           -177.9140 YYZZ=            -67.9541
 XXYZ=              9.2611 YYXZ=              9.8536 ZZXY=              4.9211
 N-N= 2.428482562101D+02 E-N=-1.804501323426D+03  KE= 4.605324677027D+02
                          Isotropic Fermi Contact Couplings
        Atom                 a.u.       MegaHertz       Gauss      10(-4) cm-1
     1  O(17)              0.09522     -57.72269     -20.59689     -19.25422
     2  O(17)              0.02860     -17.33528      -6.18566      -5.78243
     3  C(13)              0.13231     148.73776      53.07333      49.61358
     4  C(13)             -0.00061      -0.68613      -0.24483      -0.22887
     5  C(13)             -0.00777      -8.73814      -3.11799      -2.91473
     6  C(13)              0.00219       2.46243       0.87866       0.82138
     7  H(1)              -0.00371     -16.59827      -5.92267      -5.53659
     8  H(1)              -0.02370    -105.92881     -37.79803     -35.33405
     9  H(1)              -0.00220      -9.81599      -3.50259      -3.27426
    10  H(1)               0.00201       8.99992       3.21139       3.00205
    11  H(1)              -0.00005      -0.21332      -0.07612      -0.07115
    12  H(1)              -0.00002      -0.06883      -0.02456      -0.02296
    13  H(1)               0.00001       0.03250       0.01160       0.01084
    14  H(1)               0.01210      54.07489      19.29526      18.03744
    15  H(1)               0.00182       8.14795       2.90739       2.71786
    16  H(1)              -0.00008      -0.35904      -0.12812      -0.11976
    17  H(1)               0.00005       0.22548       0.08046       0.07521
 --------------------------------------------------------
       Center         ----  Spin Dipole Couplings  ----
                      3XX-RR        3YY-RR        3ZZ-RR
 --------------------------------------------------------
     1   Atom       -0.160033     -1.079045      1.239078
     2   Atom        0.260068     -0.549838      0.289770
     3   Atom        0.164012      0.046586     -0.210598
     4   Atom        0.001838     -0.000108     -0.001729
     5   Atom        0.022397     -0.009710     -0.012687
     6   Atom        0.001757      0.003113     -0.004870
     7   Atom       -0.013377      0.028957     -0.015580
     8   Atom        0.047990      0.042561     -0.090551
     9   Atom       -0.012200     -0.014011      0.026211
    10   Atom       -0.007966      0.017453     -0.009487
    11   Atom        0.001042      0.000072     -0.001114
    12   Atom        0.001802     -0.000404     -0.001398
    13   Atom        0.001326     -0.000115     -0.001212
    14   Atom        0.006871     -0.001845     -0.005026
    15   Atom        0.002440     -0.004208      0.001768
    16   Atom        0.002291     -0.001237     -0.001054
    17   Atom        0.003981      0.001750     -0.005731
 --------------------------------------------------------
                        XY            XZ            YZ
 --------------------------------------------------------
     1   Atom       -0.167762      1.514935     -0.272651
     2   Atom       -0.062820      0.849031      0.067995
     3   Atom        0.313584      0.021275      0.016564
     4   Atom       -0.001321      0.000165      0.000005
     5   Atom        0.007125     -0.003215      0.000299
     6   Atom       -0.005155      0.001527     -0.004006
     7   Atom       -0.012976     -0.000083      0.026539
     8   Atom        0.143445      0.020653      0.014680
     9   Atom        0.012734      0.007745      0.012022
    10   Atom       -0.000081      0.010516     -0.022757
    11   Atom       -0.001267      0.000227     -0.000182
    12   Atom       -0.001153     -0.000012     -0.000057
    13   Atom       -0.001448     -0.000895      0.000634
    14   Atom        0.002312     -0.001861      0.000792
    15   Atom       -0.000940     -0.006773      0.002954
    16   Atom       -0.002157      0.003311     -0.002013
    17   Atom       -0.005179      0.001653     -0.001208
 --------------------------------------------------------


 ---------------------------------------------------------------------------------
              Anisotropic Spin Dipole Couplings in Principal Axis System
 ---------------------------------------------------------------------------------

       Atom             a.u.   MegaHertz   Gauss  10(-4) cm-1        Axes

              Baa    -1.1306    81.812    29.192    27.289  0.8000 -0.2588 -0.5412
     1 O(17)  Bbb    -1.1084    80.204    28.619    26.753  0.2690  0.9611 -0.0620
              Bcc     2.2391  -162.016   -57.811   -54.043  0.5362 -0.0960  0.8386
 
              Baa    -0.6553    47.418    16.920    15.817  0.5352  0.6593 -0.5282
     2 O(17)  Bbb    -0.4688    33.921    12.104    11.315 -0.4717  0.7519  0.4606
              Bcc     1.1241   -81.338   -29.024   -27.132  0.7008  0.0027  0.7134
 
              Baa    -0.2140   -28.723   -10.249    -9.581 -0.6109  0.7132  0.3435
     3 C(13)  Bbb    -0.2114   -28.372   -10.124    -9.464  0.1890 -0.2900  0.9382
              Bcc     0.4255    57.095    20.373    19.045  0.7688  0.6381  0.0423
 
              Baa    -0.0017    -0.234    -0.083    -0.078 -0.0668 -0.0569  0.9961
     4 C(13)  Bbb    -0.0008    -0.103    -0.037    -0.034  0.4464  0.8912  0.0809
              Bcc     0.0025     0.337     0.120     0.112  0.8923 -0.4501  0.0342
 
              Baa    -0.0134    -1.794    -0.640    -0.598  0.1579 -0.3817  0.9107
     5 C(13)  Bbb    -0.0108    -1.449    -0.517    -0.483 -0.1543  0.9014  0.4045
              Bcc     0.0242     3.243     1.157     1.082  0.9753  0.2044 -0.0834
 
              Baa    -0.0066    -0.884    -0.315    -0.295  0.0966  0.4233  0.9008
     6 C(13)  Bbb    -0.0022    -0.301    -0.107    -0.100  0.7911  0.5166 -0.3276
              Bcc     0.0088     1.185     0.423     0.395 -0.6040  0.7443 -0.2850
 
              Baa    -0.0300   -15.983    -5.703    -5.331 -0.3463 -0.4477  0.8244
     7 H(1)   Bbb    -0.0138    -7.378    -2.633    -2.461  0.9158  0.0293  0.4005
              Bcc     0.0438    23.361     8.336     7.792 -0.2035  0.8937  0.3998
 
              Baa    -0.1003   -53.512   -19.094   -17.850  0.6481 -0.6029 -0.4653
     8 H(1)   Bbb    -0.0907   -48.381   -17.264   -16.138  0.2708 -0.3886  0.8807
              Bcc     0.1910   101.893    36.358    33.988  0.7118  0.6968  0.0886
 
              Baa    -0.0261   -13.951    -4.978    -4.653 -0.6482  0.7574 -0.0780
     9 H(1)   Bbb    -0.0062    -3.288    -1.173    -1.097  0.7201  0.5764 -0.3863
              Bcc     0.0323    17.238     6.151     5.750  0.2476  0.3066  0.9191
 
              Baa    -0.0269   -14.372    -5.128    -4.794 -0.4411  0.4088  0.7989
    10 H(1)   Bbb    -0.0042    -2.258    -0.806    -0.753  0.8866  0.3364  0.3174
              Bcc     0.0312    16.631     5.934     5.547 -0.1390  0.8484 -0.5108
 
              Baa    -0.0011    -0.610    -0.218    -0.203 -0.0418  0.1056  0.9935
    11 H(1)   Bbb    -0.0008    -0.426    -0.152    -0.142  0.5713  0.8183 -0.0630
              Bcc     0.0019     1.036     0.370     0.345  0.8197 -0.5650  0.0945
 
              Baa    -0.0014    -0.749    -0.267    -0.250  0.0409  0.1034  0.9938
    12 H(1)   Bbb    -0.0009    -0.475    -0.169    -0.158  0.3908  0.9137 -0.1111
              Bcc     0.0023     1.224     0.437     0.408  0.9196 -0.3929  0.0031
 
              Baa    -0.0015    -0.821    -0.293    -0.274  0.1715 -0.2496  0.9530
    13 H(1)   Bbb    -0.0010    -0.535    -0.191    -0.179  0.5559  0.8232  0.1156
              Bcc     0.0025     1.356     0.484     0.452  0.8134 -0.5100 -0.2799
 
              Baa    -0.0057    -3.030    -1.081    -1.011  0.1950 -0.3098  0.9306
    14 H(1)   Bbb    -0.0020    -1.054    -0.376    -0.351 -0.1693  0.9239  0.3430
              Bcc     0.0077     4.084     1.457     1.362  0.9661  0.2245 -0.1277
 
              Baa    -0.0062    -3.297    -1.177    -1.100 -0.3899  0.7038 -0.5939
    15 H(1)   Bbb    -0.0033    -1.736    -0.619    -0.579  0.6035  0.6824  0.4125
              Bcc     0.0094     5.033     1.796     1.679  0.6956 -0.1975 -0.6908
 
              Baa    -0.0034    -1.817    -0.648    -0.606 -0.3062  0.4659  0.8301
    16 H(1)   Bbb    -0.0022    -1.152    -0.411    -0.384  0.5612  0.7927 -0.2379
              Bcc     0.0056     2.969     1.059     0.990  0.7689 -0.3931  0.5042
 
              Baa    -0.0060    -3.216    -1.148    -1.073 -0.1279  0.0685  0.9894
    17 H(1)   Bbb    -0.0024    -1.296    -0.463    -0.432  0.6240  0.7810  0.0266
              Bcc     0.0085     4.513     1.610     1.505  0.7709 -0.6208  0.1427
 

 ---------------------------------------------------------------------------------

 No NMR shielding tensors so no spin-rotation constants.
 Leave Link  601 at Tue May  8 10:58:28 2018, MaxMem=  671088640 cpu:      25.9
 (Enter /shared/apps/gaussian/G09_LINUX_LINDA/g09/l701.exe)
 Compute integral first derivatives.
 ... and contract with generalized density number  0.
 Leave Link  701 at Tue May  8 10:58:30 2018, MaxMem=  671088640 cpu:      20.8
 (Enter /shared/apps/gaussian/G09_LINUX_LINDA/g09/l702.exe)
 L702 exits ... SP integral derivatives will be done elsewhere.
 Leave Link  702 at Tue May  8 10:58:30 2018, MaxMem=  671088640 cpu:       0.2
 (Enter /shared/apps/gaussian/G09_LINUX_LINDA/g09/l703.exe)
 Compute integral first derivatives, UseDBF=F ICtDFT=           0.
 Integral derivatives from FoFDir, PRISM(SPDF).
 Calling FoFJK, ICntrl=      2127 FMM=F ISym2X=0 I1Cent= 0 IOpClX= 1 NMat=1 NMatS=1 NMatT=0.
 FoFCou: FMM=F IPFlag=           0 FMFlag=      100000 FMFlg1=         800
         NFxFlg=           0 DoJE=F BraDBF=F KetDBF=F FulRan=T
         Omega=  0.000000  0.000000  1.000000  0.000000  0.000000 ICntrl=    2127 IOpCl=  1
         NMat0=    1 NMatS0=    1 NMatT0=    0 NMatD0=    1 NMtDS0=    0 NMtDT0=    0
         I1Cent=           0 NGrid=           0.
[...]
   D15        3.13588  -0.00001   0.00113  -0.00300  -0.00187   3.13401
   D16        1.00848   0.00000   0.00103  -0.00227  -0.00124   1.00723
   D17       -1.03034   0.00001   0.00143  -0.00249  -0.00106  -1.03140
   D18        1.03647  -0.00001   0.00087  -0.00195  -0.00108   1.03539
   D19       -1.09093   0.00000   0.00076  -0.00122  -0.00045  -1.09139
   D20       -3.12975   0.00001   0.00117  -0.00144  -0.00027  -3.13002
   D21       -1.04636  -0.00003   0.00084  -0.00236  -0.00152  -1.04789
   D22        3.10942  -0.00002   0.00074  -0.00163  -0.00090   3.10853
   D23        1.07061  -0.00001   0.00114  -0.00185  -0.00072   1.06989
   D24       -3.11438  -0.00002  -0.00202   0.00889   0.00686  -3.10752
   D25       -0.97886  -0.00001  -0.00172   0.00768   0.00596  -0.97290
   D26        1.04241  -0.00006  -0.00212   0.00791   0.00579   1.04821
   D27       -0.99841  -0.00001  -0.00415   0.01241   0.00826  -0.99016
   D28        1.13711   0.00000  -0.00385   0.01120   0.00735   1.14446
   D29       -3.12480  -0.00005  -0.00425   0.01143   0.00718  -3.11762
   D30        1.01829   0.00000  -0.00330   0.00931   0.00602   1.02431
   D31       -3.12937   0.00001  -0.00300   0.00810   0.00511  -3.12426
   D32       -1.10809  -0.00004  -0.00339   0.00834   0.00495  -1.10315
         Item               Value     Threshold  Converged?
 Maximum Force            0.000979     0.002500     YES
 RMS     Force            0.000149     0.001667     YES
 Maximum Displacement     0.126564     0.010000     NO 
 RMS     Displacement     0.023389     0.006667     NO 
 Predicted change in Energy=-4.823080D-05
 GradGradGradGradGradGradGradGradGradGradGradGradGradGradGradGradGradGrad

 Leave Link  103 at Tue May  8 11:28:03 2018, MaxMem=  671088640 cpu:      46.6
 (Enter /shared/apps/gaussian/G09_LINUX_LINDA/g09/l202.exe)
                          Input orientation:                          
 ---------------------------------------------------------------------
 Center     Atomic      Atomic             Coordinates (Angstroms)
 Number     Number       Type             X           Y           Z
 ---------------------------------------------------------------------
      1          8           0        2.491135   -0.026990   -0.906182
      2          8           0        3.079592    0.747869    0.091956
      3          6           0        0.761300   -1.548636    0.066072
      4          6           0       -2.011306    1.160637    0.076102
      5          6           0       -0.497168   -0.832887   -0.318141
      6          6           0       -0.704357    0.472718    0.446276
      7          1           0        2.565086    1.562359    0.067777
      8          1           0        1.786582   -0.730910   -0.325734
      9          1           0        0.960339   -1.634455    1.132609
     10          1           0        1.012343   -2.442502   -0.497002
     11          1           0       -2.149595    2.085425    0.633571
     12          1           0       -2.861100    0.511295    0.286771
     13          1           0       -2.034158    1.401462   -0.987421
     14          1           0       -1.353105   -1.494757   -0.132570
     15          1           0       -0.500619   -0.637743   -1.394591
     16          1           0       -0.681329    0.267800    1.519921
     17          1           0        0.136360    1.139315    0.240786
 ---------------------------------------------------------------------
                    Distance matrix (angstroms):
                    1          2          3          4          5
     1  O    0.000000
     2  O    1.393904   0.000000
     3  C    2.500602   3.263293   0.000000
     4  C    4.758920   5.107629   3.876545   0.000000
     5  C    3.150431   3.931944   1.497885   2.534202   0.000000
     6  C    3.505713   3.810449   2.525585   1.522622   1.527045
     7  H    1.865501   0.963688   3.596100   4.593997   3.906857
     8  H    1.152744   2.008265   1.368719   4.261852   2.286039
     9  H    3.013959   3.354051   1.088339   4.214193   2.207151
    10  H    2.861634   3.846928   1.085851   4.738514   2.213927
    11  H    5.326304   5.424647   4.690603   1.088635   3.486089
    12  H    5.509928   5.948591   4.172985   1.090035   2.785843
    13  H    4.746088   5.267132   4.198513   1.090688   2.793312
    14  H    4.187003   4.972784   2.124398   2.743700   1.097786
    15  H    3.092273   4.116753   2.134409   2.771152   1.094000
    16  H    4.004673   4.051428   2.737571   2.156527   2.150326
    17  H    2.867189   2.972877   2.765168   2.154076   2.145539
                    6          7          8          9         10
     6  C    0.000000
     7  H    3.466963   0.000000
     8  H    2.872194   2.453569   0.000000
     9  H    2.771723   3.732117   1.904163   0.000000
    10  H    3.512170   4.332308   1.886352   1.819691   0.000000
    11  H    2.173618   4.777231   4.934116   4.874242   5.637212
    12  H    2.162977   5.531382   4.849658   4.463528   4.933840
    13  H    2.164815   4.721480   4.425257   4.762178   4.929274
    14  H    2.151022   4.973762   3.237037   2.640495   2.574174
    15  H    2.159497   4.046914   2.526346   3.084570   2.520292
    16  H    1.093268   3.784681   3.239514   2.542373   3.779185
    17  H    1.092420   2.471358   2.557718   3.027885   3.760464
                   11         12         13         14         15
    11  H    0.000000
    12  H    1.761929   0.000000
    13  H    1.763163   1.760623   0.000000
    14  H    3.746874   2.544433   3.095592   0.000000
    15  H    3.774680   3.117553   2.583774   1.747541   0.000000
    16  H    2.499036   2.516218   3.066284   2.507711   3.057294
    17  H    2.504994   3.062889   2.507660   3.048972   2.497626
                   16         17
    16  H    0.000000
    17  H    1.750525   0.000000
 Stoichiometry    C4H11O2(2)
 Framework group  C1[X(C4H11O2)]
 Deg. of freedom    45
 Full point group                 C1      NOp   1
 Largest Abelian subgroup         C1      NOp   1
 Largest concise Abelian subgroup C1      NOp   1
                         Standard orientation:                         
 ---------------------------------------------------------------------
 Center     Atomic      Atomic             Coordinates (Angstroms)
 Number     Number       Type             X           Y           Z
 ---------------------------------------------------------------------
      1          8           0       -2.032718   -0.075072   -0.638513
      2          8           0       -2.446785   -0.996041    0.322390
      3          6           0       -0.369100    1.520352    0.331027
      4          6           0        2.635202   -0.876742   -0.174651
      5          6           0        0.908651    0.977439   -0.231339
      6          6           0        1.310694   -0.365097    0.375145
      7          1           0       -1.862327   -1.747151    0.170941
      8          1           0       -1.345382    0.640936   -0.052238
      9          1           0       -0.472058    1.485624    1.413929
     10          1           0       -0.756366    2.431900   -0.114143
     11          1           0        2.913125   -1.830053    0.271537
     12          1           0        3.436118   -0.165390    0.027061
     13          1           0        2.578514   -1.014017   -1.255180
     14          1           0        1.712060    1.704165   -0.053751
     15          1           0        0.827181    0.884596   -1.318344
     16          1           0        1.371572   -0.264340    1.462057
     17          1           0        0.520901   -1.093079    0.176021
 ---------------------------------------------------------------------
 Rotational constants (GHZ):      4.7334173      1.5060625      1.2550882
 Leave Link  202 at Tue May  8 11:28:03 2018, MaxMem=  671088640 cpu:       0.9
 (Enter /shared/apps/gaussian/G09_LINUX_LINDA/g09/l301.exe)
 Standard basis: 6-311+G(2df,2p) (5D, 7F)
 Ernie: Thresh=  0.10000D-02 Tol=  0.10000D-05 Strict=F.
 There are   303 symmetry adapted basis functions of A   symmetry.
 Integral buffers will be    131072 words long.
 Raffenetti 2 integral format.
 Two-electron integral symmetry is turned on.
   303 basis functions,   433 primitive gaussians,   333 cartesian basis functions
    26 alpha electrons       25 beta electrons
       nuclear repulsion energy       247.8936213212 Hartrees.
 IExCor= 4336 DFT=T Ex+Corr=M062X ExCW=0 ScaHFX=  0.540000
 ScaDFX=  1.000000  1.000000  1.000000  1.000000 ScalE2=  1.000000  1.000000
 IRadAn=      1 IRanWt=     -1 IRanGd=            0 ICorTp=0
 NAtoms=   17 NActive=   17 NUniq=   17 SFac= 1.00D+00 NAtFMM=   50 NAOKFM=F Big=F
 Leave Link  301 at Tue May  8 11:28:03 2018, MaxMem=  671088640 cpu:       0.9
 (Enter /shared/apps/gaussian/G09_LINUX_LINDA/g09/l302.exe)
 NPDir=0 NMtPBC=     1 NCelOv=     1 NCel=       1 NClECP=     1 NCelD=      1
         NCelK=      1 NCelE2=     1 NClLst=     1 CellRange=     0.0.
 One-electron integrals computed using PRISM.
 NBasis=   303 RedAO= T  NBF=   303
 NBsUse=   303 1.00D-06 NBFU=   303
 Precomputing XC quadrature grid using
 IXCGrd= 2 IRadAn=           1 IRanWt=          -1 IRanGd=           0 AccXCQ= 0.00D+00.
 NRdTot=     731 NPtTot=       53762 NUsed=       59113 NTot=       59145
 NSgBfM=   333   333   333   333   333 NAtAll=    17    17.
 Leave Link  302 at Tue May  8 11:28:05 2018, MaxMem=  671088640 cpu:      15.3
 (Enter /shared/apps/gaussian/G09_LINUX_LINDA/g09/l303.exe)
 DipDrv:  MaxL=1.
 Leave Link  303 at Tue May  8 11:28:05 2018, MaxMem=  671088640 cpu:       3.2
 (Enter /shared/apps/gaussian/G09_LINUX_LINDA/g09/l401.exe)
 Initial guess read from the read-write file.
 B after Tr=     0.000000    0.000000    0.000000
         Rot=    1.000000    0.000000    0.000000    0.000000 Ang=   0.00 deg.
 Guess basis will be translated and rotated to current coordinates.
 Initial guess orbital symmetries:
 Alpha Orbitals:
       Occupied  (A) (A) (A) (A) (A) (A) (A) (A) (A) (A) (A) (A)
                 (A) (A) (A) (A) (A) (A) (A) (A) (A) (A) (A) (A)
                 (A) (A)
       Virtual   (A) (A) (A) (A) (A) (A) (A) (A) (A) (A) (A) (A)
                 (A) (A) (A) (A) (A) (A) (A) (A) (A) (A) (A) (A)
                 (A) (A) (A) (A) (A) (A) (A) (A) (A) (A) (A) (A)
                 (A) (A) (A) (A) (A) (A) (A) (A) (A) (A) (A) (A)
                 (A) (A) (A) (A) (A) (A) (A) (A) (A) (A) (A) (A)
                 (A) (A) (A) (A) (A) (A) (A) (A) (A) (A) (A) (A)
                 (A) (A) (A) (A) (A) (A) (A) (A) (A) (A) (A) (A)
                 (A) (A) (A) (A) (A) (A) (A) (A) (A) (A) (A) (A)
                 (A) (A) (A) (A) (A) (A) (A) (A) (A) (A) (A) (A)
                 (A) (A) (A) (A) (A) (A) (A) (A) (A) (A) (A) (A)
                 (A) (A) (A) (A) (A) (A) (A) (A) (A) (A) (A) (A)
                 (A) (A) (A) (A) (A) (A) (A) (A) (A) (A) (A) (A)
                 (A) (A) (A) (A) (A) (A) (A) (A) (A) (A) (A) (A)
                 (A) (A) (A) (A) (A) (A) (A) (A) (A) (A) (A) (A)
                 (A) (A) (A) (A) (A) (A) (A) (A) (A) (A) (A) (A)
                 (A) (A) (A) (A) (A) (A) (A) (A) (A) (A) (A) (A)
                 (A) (A) (A) (A) (A) (A) (A) (A) (A) (A) (A) (A)
                 (A) (A) (A) (A) (A) (A) (A) (A) (A) (A) (A) (A)
                 (A) (A) (A) (A) (A) (A) (A) (A) (A) (A) (A) (A)
                 (A) (A) (A) (A) (A) (A) (A) (A) (A) (A) (A) (A)
                 (A) (A) (A) (A) (A) (A) (A) (A) (A) (A) (A) (A)
                 (A) (A) (A) (A) (A) (A) (A) (A) (A) (A) (A) (A)
                 (A) (A) (A) (A) (A) (A) (A) (A) (A) (A) (A) (A)
                 (A)
 Beta  Orbitals:
       Occupied  (A) (A) (A) (A) (A) (A) (A) (A) (A) (A) (A) (A)
                 (A) (A) (A) (A) (A) (A) (A) (A) (A) (A) (A) (A)
                 (A)
       Virtual   (A) (A) (A) (A) (A) (A) (A) (A) (A) (A) (A) (A)
                 (A) (A) (A) (A) (A) (A) (A) (A) (A) (A) (A) (A)
                 (A) (A) (A) (A) (A) (A) (A) (A) (A) (A) (A) (A)
                 (A) (A) (A) (A) (A) (A) (A) (A) (A) (A) (A) (A)
                 (A) (A) (A) (A) (A) (A) (A) (A) (A) (A) (A) (A)
                 (A) (A) (A) (A) (A) (A) (A) (A) (A) (A) (A) (A)
                 (A) (A) (A) (A) (A) (A) (A) (A) (A) (A) (A) (A)
                 (A) (A) (A) (A) (A) (A) (A) (A) (A) (A) (A) (A)
                 (A) (A) (A) (A) (A) (A) (A) (A) (A) (A) (A) (A)
                 (A) (A) (A) (A) (A) (A) (A) (A) (A) (A) (A) (A)
                 (A) (A) (A) (A) (A) (A) (A) (A) (A) (A) (A) (A)
                 (A) (A) (A) (A) (A) (A) (A) (A) (A) (A) (A) (A)
                 (A) (A) (A) (A) (A) (A) (A) (A) (A) (A) (A) (A)
                 (A) (A) (A) (A) (A) (A) (A) (A) (A) (A) (A) (A)
                 (A) (A) (A) (A) (A) (A) (A) (A) (A) (A) (A) (A)
                 (A) (A) (A) (A) (A) (A) (A) (A) (A) (A) (A) (A)
                 (A) (A) (A) (A) (A) (A) (A) (A) (A) (A) (A) (A)
                 (A) (A) (A) (A) (A) (A) (A) (A) (A) (A) (A) (A)
                 (A) (A) (A) (A) (A) (A) (A) (A) (A) (A) (A) (A)
                 (A) (A) (A) (A) (A) (A) (A) (A) (A) (A) (A) (A)
                 (A) (A) (A) (A) (A) (A) (A) (A) (A) (A) (A) (A)
                 (A) (A) (A) (A) (A) (A) (A) (A) (A) (A) (A) (A)
                 (A) (A) (A) (A) (A) (A) (A) (A) (A) (A) (A) (A)
                 (A) (A)
 The electronic state of the initial guess is 2-A.
 Initial guess <Sx>= 0.0000 <Sy>= 0.0000 <Sz>= 0.5000 <S**2>= 0.7599 S= 0.5050
 Generating alternative initial guess.
 Harris functional with IExCor= 1009 diagonalized for initial guess.
 ExpMin= 4.38D-02 ExpMax= 8.59D+03 ExpMxC= 1.30D+03 IAcc=2 IRadAn=         1 AccDes= 0.00D+00
 HarFok:  IExCor= 1009 AccDes= 0.00D+00 IRadAn=         1 IDoV= 1
 ScaDFX=  1.000000  1.000000  1.000000  1.000000
 FoFCou: FMM=F IPFlag=           0 FMFlag=      100000 FMFlg1=           0
         NFxFlg=           0 DoJE=T BraDBF=F KetDBF=T FulRan=T
         Omega=  0.000000  0.000000  1.000000  0.000000  0.000000 ICntrl=     500 IOpCl=  0
         NMat0=    1 NMatS0=    1 NMatT0=    0 NMatD0=    1 NMtDS0=    0 NMtDT0=    0
         I1Cent=           4 NGrid=           0.
 Petite list used in FoFCou.
 Harris En= -309.194622336828    
 Leave Link  401 at Tue May  8 11:28:13 2018, MaxMem=  671088640 cpu:      75.8
 (Enter /shared/apps/gaussian/G09_LINUX_LINDA/g09/l502.exe)
 UHF open shell SCF:
 Requested convergence on RMS density matrix=1.00D-08 within 128 cycles.
 Requested convergence on MAX density matrix=1.00D-06.
 Requested convergence on             energy=1.00D-06.
 No special actions if energy rises.
 Using DIIS extrapolation, IDIIS=  1040.
 Integral symmetry usage will be decided dynamically.
        58947 words used for storage of precomputed grid.
 IEnd=      418858 IEndB=      418858 NGot=   671088640 MDV=   670797645
 LenX=   670797645 LenY=   670686315
 Fock matrices will be formed incrementally for  20 cycles.

 Cycle   1  Pass 1  IDiag  1:
 FoFCou: FMM=F IPFlag=           0 FMFlag=      100000 FMFlg1=           0
         NFxFlg=           0 DoJE=F BraDBF=F KetDBF=F FulRan=T
         Omega=  0.000000  0.000000  1.000000  0.000000  0.000000 ICntrl=       0 IOpCl=  1
         NMat0=    1 NMatS0=    1 NMatT0=    0 NMatD0=    1 NMtDS0=    0 NMtDT0=    0
         I1Cent=           0 NGrid=           0.
 Symmetry not used in FoFCou.
 E= -309.277308532624    
 DIIS: error= 1.88D-03 at cycle   1 NSaved=   1.
 NSaved= 1 IEnMin= 1 EnMin= -309.277308532624     IErMin= 1 ErrMin= 1.88D-03
 ErrMax= 1.88D-03 EMaxC= 1.00D-01 BMatC= 4.86D-03 BMatP= 4.86D-03
 IDIUse=3 WtCom= 9.81D-01 WtEn= 1.88D-02
 Coeff-Com:  0.100D+01
 Coeff-En:   0.100D+01
 Coeff:      0.100D+01
 Gap=     0.312 Goal=   None    Shift=    0.000
 Gap=     0.281 Goal=   None    Shift=    0.000
 GapD=    0.281 DampG=1.000 DampE=1.000 DampFc=1.0000 IDamp=-1.
 RMSDP=2.05D-04 MaxDP=1.01D-02              OVMax= 1.47D-02

 Cycle   2  Pass 1  IDiag  1:
 RMSU=  1.53D-04    CP:  1.00D+00
 E= -309.279078808848     Delta-E=       -0.001770276224 Rises=F Damp=F
 DIIS: error= 6.59D-04 at cycle   2 NSaved=   2.
 NSaved= 2 IEnMin= 2 EnMin= -309.279078808848     IErMin= 2 ErrMin= 6.59D-04
 ErrMax= 6.59D-04 EMaxC= 1.00D-01 BMatC= 2.79D-04 BMatP= 4.86D-03
 IDIUse=3 WtCom= 9.93D-01 WtEn= 6.59D-03
 Coeff-Com: -0.129D+00 0.113D+01
 Coeff-En:   0.000D+00 0.100D+01
 Coeff:     -0.129D+00 0.113D+01
 Gap=     0.308 Goal=   None    Shift=    0.000
 Gap=     0.272 Goal=   None    Shift=    0.000
 RMSDP=6.92D-05 MaxDP=3.32D-03 DE=-1.77D-03 OVMax= 6.59D-03

 Cycle   3  Pass 1  IDiag  1:
 RMSU=  4.19D-05    CP:  1.00D+00  1.20D+00
 E= -309.279183668447     Delta-E=       -0.000104859599 Rises=F Damp=F
 DIIS: error= 6.42D-04 at cycle   3 NSaved=   3.
 NSaved= 3 IEnMin= 3 EnMin= -309.279183668447     IErMin= 3 ErrMin= 6.42D-04
 ErrMax= 6.42D-04 EMaxC= 1.00D-01 BMatC= 2.90D-04 BMatP= 2.79D-04
 IDIUse=3 WtCom= 9.94D-01 WtEn= 6.42D-03
 Coeff-Com: -0.109D+00 0.638D+00 0.471D+00
 Coeff-En:   0.000D+00 0.000D+00 0.100D+01
 Coeff:     -0.109D+00 0.634D+00 0.475D+00
 Gap=     0.308 Goal=   None    Shift=    0.000
 Gap=     0.272 Goal=   None    Shift=    0.000
 RMSDP=2.03D-05 MaxDP=9.72D-04 DE=-1.05D-04 OVMax= 2.36D-03

 Cycle   4  Pass 1  IDiag  1:
 RMSU=  1.18D-05    CP:  1.00D+00  1.21D+00  7.89D-01
 E= -309.279234225043     Delta-E=       -0.000050556596 Rises=F Damp=F
 DIIS: error= 1.17D-04 at cycle   4 NSaved=   4.
 NSaved= 4 IEnMin= 4 EnMin= -309.279234225043     IErMin= 4 ErrMin= 1.17D-04
 ErrMax= 1.17D-04 EMaxC= 1.00D-01 BMatC= 1.24D-05 BMatP= 2.79D-04
 IDIUse=3 WtCom= 9.99D-01 WtEn= 1.17D-03
 Coeff-Com:  0.147D-01-0.193D+00 0.806D-01 0.110D+01
 Coeff-En:   0.000D+00 0.000D+00 0.000D+00 0.100D+01
 Coeff:      0.147D-01-0.193D+00 0.805D-01 0.110D+01
 Gap=     0.308 Goal=   None    Shift=    0.000
 Gap=     0.272 Goal=   None    Shift=    0.000
 RMSDP=1.12D-05 MaxDP=4.57D-04 DE=-5.06D-05 OVMax= 1.65D-03

 Cycle   5  Pass 1  IDiag  1:
 RMSU=  5.62D-06    CP:  1.00D+00  1.22D+00  8.78D-01  1.30D+00
 E= -309.279239297328     Delta-E=       -0.000005072285 Rises=F Damp=F
 DIIS: error= 1.87D-05 at cycle   5 NSaved=   5.
 NSaved= 5 IEnMin= 5 EnMin= -309.279239297328     IErMin= 5 ErrMin= 1.87D-05
 ErrMax= 1.87D-05 EMaxC= 1.00D-01 BMatC= 6.43D-07 BMatP= 1.24D-05
 IDIUse=1 WtCom= 1.00D+00 WtEn= 0.00D+00
 Coeff-Com:  0.810D-02-0.744D-01 0.558D-02 0.308D+00 0.753D+00
 Coeff:      0.810D-02-0.744D-01 0.558D-02 0.308D+00 0.753D+00
 Gap=     0.308 Goal=   None    Shift=    0.000
 Gap=     0.272 Goal=   None    Shift=    0.000
 RMSDP=3.35D-06 MaxDP=2.28D-04 DE=-5.07D-06 OVMax= 3.12D-04

 Cycle   6  Pass 1  IDiag  1:
 RMSU=  1.69D-06    CP:  1.00D+00  1.21D+00  9.02D-01  1.37D+00  1.05D+00
 E= -309.279239535756     Delta-E=       -0.000000238428 Rises=F Damp=F
 DIIS: error= 1.05D-05 at cycle   6 NSaved=   6.
 NSaved= 6 IEnMin= 6 EnMin= -309.279239535756     IErMin= 6 ErrMin= 1.05D-05
 ErrMax= 1.05D-05 EMaxC= 1.00D-01 BMatC= 1.80D-07 BMatP= 6.43D-07
 IDIUse=1 WtCom= 1.00D+00 WtEn= 0.00D+00
 Coeff-Com:  0.140D-02-0.574D-03-0.133D-01-0.591D-01 0.279D+00 0.793D+00
 Coeff:      0.140D-02-0.574D-03-0.133D-01-0.591D-01 0.279D+00 0.793D+00
 Gap=     0.308 Goal=   None    Shift=    0.000
 Gap=     0.272 Goal=   None    Shift=    0.000
 RMSDP=1.75D-06 MaxDP=7.98D-05 DE=-2.38D-07 OVMax= 3.18D-04

 Cycle   7  Pass 1  IDiag  1:
 RMSU=  5.77D-07    CP:  1.00D+00  1.21D+00  8.97D-01  1.40D+00  1.20D+00
                    CP:  9.06D-01
 E= -309.279239631405     Delta-E=       -0.000000095649 Rises=F Damp=F
 DIIS: error= 6.81D-06 at cycle   7 NSaved=   7.
 NSaved= 7 IEnMin= 7 EnMin= -309.279239631405     IErMin= 7 ErrMin= 6.81D-06
 ErrMax= 6.81D-06 EMaxC= 1.00D-01 BMatC= 3.80D-08 BMatP= 1.80D-07
 IDIUse=1 WtCom= 1.00D+00 WtEn= 0.00D+00
 Coeff-Com: -0.125D-02 0.146D-01-0.492D-02-0.744D-01-0.131D+00 0.243D+00
 Coeff-Com:  0.954D+00
 Coeff:     -0.125D-02 0.146D-01-0.492D-02-0.744D-01-0.131D+00 0.243D+00
 Coeff:      0.954D+00
 Gap=     0.308 Goal=   None    Shift=    0.000
