 Entering Gaussian System, Link 0=g09
 Initial command:
 /shared/apps/gaussian/G09_LINUX_LINDA/g09/l1.exe /home/harms.n/Code/AutoTST/discovery_test/test/Gau-42271.inp -scrdir=/home/harms.n/Code/AutoTST/discovery_test/test/
 Entering Link 1 = /shared/apps/gaussian/G09_LINUX_LINDA/g09/l1.exe PID=     42272.
  
 Copyright (c) 1988,1990,1992,1993,1995,1998,2003,2009,2010,
            Gaussian, Inc.  All Rights Reserved.
  
 This is part of the Gaussian(R) 09 program.  It is based on
 the Gaussian(R) 03 system (copyright 2003, Gaussian, Inc.),
 the Gaussian(R) 98 system (copyright 1998, Gaussian, Inc.),
 the Gaussian(R) 94 system (copyright 1995, Gaussian, Inc.),
 the Gaussian 92(TM) system (copyright 1992, Gaussian, Inc.),
 the Gaussian 90(TM) system (copyright 1990, Gaussian, Inc.),
 the Gaussian 88(TM) system (copyright 1988, Gaussian, Inc.),
 the Gaussian 86(TM) system (copyright 1986, Carnegie Mellon
 University), and the Gaussian 82(TM) system (copyright 1983,
 Carnegie Mellon University). Gaussian is a federally registered
 trademark of Gaussian, Inc.
  
 This software contains proprietary and confidential information,
 including trade secrets, belonging to Gaussian, Inc.
  
 This software is provided under written license and may be
 used, copied, transmitted, or stored only in accord with that
 written license.
  
 The following legend is applicable only to US Government
 contracts under FAR:
  
                    RESTRICTED RIGHTS LEGEND
  
 Use, reproduction and disclosure by the US Government is
 subject to restrictions as set forth in subparagraphs (a)
 and (c) of the Commercial Computer Software - Restricted
 Rights clause in FAR 52.227-19.
  
 Gaussian, Inc.
 340 Quinnipiac St., Bldg. 40, Wallingford CT 06492
  
  
 ---------------------------------------------------------------
 Warning -- This program may not be used in any manner that
 competes with the business of Gaussian, Inc. or will provide
 assistance to any competitor of Gaussian, Inc.  The licensee
 of this program is prohibited from giving any competitor of
 Gaussian, Inc. access to this program.  By using this program,
 the user acknowledges that Gaussian, Inc. is engaged in the
 business of creating and licensing software in the field of
 computational chemistry and represents and warrants to the
 licensee that it is not a competitor of Gaussian, Inc. and that
 it will not use this program in any manner prohibited above.
 ---------------------------------------------------------------
  

 Cite this work as:
 Gaussian 09, Revision B.01,
 M. J. Frisch, G. W. Trucks, H. B. Schlegel, G. E. Scuseria, 
 M. A. Robb, J. R. Cheeseman, G. Scalmani, V. Barone, B. Mennucci, 
 G. A. Petersson, H. Nakatsuji, M. Caricato, X. Li, H. P. Hratchian, 
 A. F. Izmaylov, J. Bloino, G. Zheng, J. L. Sonnenberg, M. Hada, 
 M. Ehara, K. Toyota, R. Fukuda, J. Hasegawa, M. Ishida, T. Nakajima, 
 Y. Honda, O. Kitao, H. Nakai, T. Vreven, J. A. Montgomery, Jr., 
 J. E. Peralta, F. Ogliaro, M. Bearpark, J. J. Heyd, E. Brothers, 
 K. N. Kudin, V. N. Staroverov, T. Keith, R. Kobayashi, J. Normand, 
 K. Raghavachari, A. Rendell, J. C. Burant, S. S. Iyengar, J. Tomasi, 
 M. Cossi, N. Rega, J. M. Millam, M. Klene, J. E. Knox, J. B. Cross, 
 V. Bakken, C. Adamo, J. Jaramillo, R. Gomperts, R. E. Stratmann, 
 O. Yazyev, A. J. Austin, R. Cammi, C. Pomelli, J. W. Ochterski, 
 R. L. Martin, K. Morokuma, V. G. Zakrzewski, G. A. Voth, 
 P. Salvador, J. J. Dannenberg, S. Dapprich, A. D. Daniels, 
 O. Farkas, J. B. Foresman, J. V. Ortiz, J. Cioslowski, 
 and D. J. Fox, Gaussian, Inc., Wallingford CT, 2010.
 
 ******************************************
 Gaussian 09:  EM64L-G09RevB.01 12-Aug-2010
                12-Jun-2018 
 ******************************************
 %nprocshared=20
 Will use up to   20 processors via shared memory.
 %mem=5GB
 -----------------------------------------------------------
 #p m062x/6-311+g(2df,2p) Opt=(ModRedun,Loose) Int(Grid=SG1)
 -----------------------------------------------------------
 1/7=-1,14=-1,18=120,19=15,26=2,38=1/1,3;
 2/9=110,12=2,17=6,18=5,40=1/2;
 3/5=4,6=6,7=214,11=2,16=1,25=1,30=1,71=1,74=-55,75=1/1,2,3;
 4//1;
 5/5=2,38=5/2;
 6/7=2,8=2,9=2,10=2,28=1/1;
 7//1,2,3,16;
 1/7=-1,14=-1,18=20,19=15/3(2);
 2/9=110/2;
 99//99;
 2/9=110/2;
 3/5=4,6=6,7=214,11=2,16=1,25=1,30=1,71=1,74=-55,75=1/1,2,3;
 4/5=5,16=3/1;
 5/5=2,38=5/2;
 7//1,2,3,16;
 1/7=-1,14=-1,18=20,19=15/3(-5);
 2/9=110/2;
 6/7=2,8=2,9=2,10=2,19=2,28=1/1;
 99/9=1/99;
 Leave Link    1 at Tue Jun 12 16:00:52 2018, MaxMem=  671088640 cpu:       1.2
 (Enter /shared/apps/gaussian/G09_LINUX_LINDA/g09/l101.exe)
 ------------------------------
 Gaussian input prepared by ASE
 ------------------------------
 Symbolic Z-matrix:
 Charge =  0 Multiplicity = 2
 O                    -2.6943   -0.0049    0.1335 
 O                    -3.4761   -1.0578    0.0243 
 C                     0.3373    0.5562   -0.9851 
 C                     0.988    -0.1118   -0.0102 
 C                    -0.8219    1.4737   -0.7225 
 C                     0.5888    0.0224    1.4402 
 C                     2.1386   -1.0073   -0.3899 
 H                    -2.9758   -1.7857    0.4721 
 H                     0.6556    0.4338   -2.0175 
 H                    -1.8047    0.809    -0.165 
 H                    -1.1838    1.901    -1.6811 
 H                    -0.5085    2.3076   -0.0602 
 H                     0.6792    1.0811    1.7621 
 H                    -0.4591   -0.3171    1.5781 
 H                     1.2367   -0.5919    2.0994 
 H                     2.928    -0.4105   -0.8941 
 H                     2.5877   -1.4978    0.4986 
 H                     1.7844   -1.7998   -1.0827 
 
 NAtoms=     18 NQM=     18 NQMF=      0 NMic=      0 NMicF=      0 NTot=     18.
 The following ModRedundant input section has been read:
 B       1       5 F                                                           
 B       1      10 F                                                           
 B       5      10 F                                                           
                    Isotopes and Nuclear Properties:
 (Nuclear quadrupole moments (NQMom) in fm**2, nuclear magnetic moments (NMagM)
  in nuclear magnetons)

  Atom         1           2           3           4           5           6           7           8           9          10
 IAtWgt=          16          16          12          12          12          12          12           1           1           1
 AtmWgt=  15.9949146  15.9949146  12.0000000  12.0000000  12.0000000  12.0000000  12.0000000   1.0078250   1.0078250   1.0078250
 NucSpn=           0           0           0           0           0           0           0           1           1           1
 AtZEff=   0.0000000   0.0000000   0.0000000   0.0000000   0.0000000   0.0000000   0.0000000   0.0000000   0.0000000   0.0000000
 NQMom=    0.0000000   0.0000000   0.0000000   0.0000000   0.0000000   0.0000000   0.0000000   0.0000000   0.0000000   0.0000000
 NMagM=    0.0000000   0.0000000   0.0000000   0.0000000   0.0000000   0.0000000   0.0000000   2.7928460   2.7928460   2.7928460

  Atom        11          12          13          14          15          16          17          18
 IAtWgt=           1           1           1           1           1           1           1           1
 AtmWgt=   1.0078250   1.0078250   1.0078250   1.0078250   1.0078250   1.0078250   1.0078250   1.0078250
 NucSpn=           1           1           1           1           1           1           1           1
 AtZEff=   0.0000000   0.0000000   0.0000000   0.0000000   0.0000000   0.0000000   0.0000000   0.0000000
 NQMom=    0.0000000   0.0000000   0.0000000   0.0000000   0.0000000   0.0000000   0.0000000   0.0000000
 NMagM=    2.7928460   2.7928460   2.7928460   2.7928460   2.7928460   2.7928460   2.7928460   2.7928460
 Leave Link  101 at Tue Jun 12 16:00:52 2018, MaxMem=  671088640 cpu:       1.2
 (Enter /shared/apps/gaussian/G09_LINUX_LINDA/g09/l103.exe)

 GradGradGradGradGradGradGradGradGradGradGradGradGradGradGradGradGradGrad
 Berny optimization.
 Initialization pass.
                           ----------------------------
                           !    Initial Parameters    !
                           ! (Angstroms and Degrees)  !
 --------------------------                            --------------------------
 ! Name  Definition              Value          Derivative Info.                !
 --------------------------------------------------------------------------------
 ! R1    R(1,2)                  1.316          estimate D2E/DX2                !
 ! R2    R(1,5)                  2.5347         Frozen                          !
 ! R3    R(1,10)                 1.2421         Frozen                          !
 ! R4    R(2,8)                  0.9903         estimate D2E/DX2                !
 ! R5    R(3,4)                  1.3491         estimate D2E/DX2                !
 ! R6    R(3,5)                  1.5015         estimate D2E/DX2                !
 ! R7    R(3,9)                  1.0873         estimate D2E/DX2                !
 ! R8    R(4,6)                  1.5103         estimate D2E/DX2                !
 ! R9    R(4,7)                  1.5066         estimate D2E/DX2                !
 ! R10   R(5,10)                 1.3109         Frozen                          !
 ! R11   R(5,11)                 1.1102         estimate D2E/DX2                !
 ! R12   R(5,12)                 1.1101         estimate D2E/DX2                !
 ! R13   R(6,13)                 1.1102         estimate D2E/DX2                !
 ! R14   R(6,14)                 1.1101         estimate D2E/DX2                !
 ! R15   R(6,15)                 1.1098         estimate D2E/DX2                !
 ! R16   R(7,16)                 1.1106         estimate D2E/DX2                !
 ! R17   R(7,17)                 1.1098         estimate D2E/DX2                !
 ! R18   R(7,18)                 1.1106         estimate D2E/DX2                !
 ! A1    A(2,1,10)             158.403          estimate D2E/DX2                !
 ! A2    A(1,2,8)              104.5038         estimate D2E/DX2                !
 ! A3    A(4,3,5)              123.2672         estimate D2E/DX2                !
 ! A4    A(4,3,9)              119.2895         estimate D2E/DX2                !
 ! A5    A(5,3,9)              117.4432         estimate D2E/DX2                !
 ! A6    A(3,4,6)              121.4991         estimate D2E/DX2                !
 ! A7    A(3,4,7)              118.7197         estimate D2E/DX2                !
 ! A8    A(6,4,7)              119.7812         estimate D2E/DX2                !
 ! A9    A(3,5,10)             110.08           estimate D2E/DX2                !
 ! A10   A(3,5,11)             109.6242         estimate D2E/DX2                !
 ! A11   A(3,5,12)             110.2072         estimate D2E/DX2                !
 ! A12   A(10,5,11)            108.5408         estimate D2E/DX2                !
 ! A13   A(10,5,12)            109.8056         estimate D2E/DX2                !
 ! A14   A(11,5,12)            108.5461         estimate D2E/DX2                !
 ! A15   A(4,6,13)             109.9772         estimate D2E/DX2                !
 ! A16   A(4,6,14)             109.9757         estimate D2E/DX2                !
 ! A17   A(4,6,15)             111.526          estimate D2E/DX2                !
 ! A18   A(13,6,14)            109.4187         estimate D2E/DX2                !
 ! A19   A(13,6,15)            107.943          estimate D2E/DX2                !
 ! A20   A(14,6,15)            107.9393         estimate D2E/DX2                !
 ! A21   A(4,7,16)             109.7442         estimate D2E/DX2                !
 ! A22   A(4,7,17)             111.7131         estimate D2E/DX2                !
 ! A23   A(4,7,18)             109.7411         estimate D2E/DX2                !
 ! A24   A(16,7,17)            108.2587         estimate D2E/DX2                !
 ! A25   A(16,7,18)            109.0819         estimate D2E/DX2                !
 ! A26   A(17,7,18)            108.245          estimate D2E/DX2                !
 ! A27   A(1,10,5)             166.2525         estimate D2E/DX2                !
 ! D1    D(10,1,2,8)            89.2942         estimate D2E/DX2                !
 ! D2    D(2,1,10,5)            -2.7816         estimate D2E/DX2                !
 ! D3    D(5,3,4,6)             -0.1232         estimate D2E/DX2                !
 ! D4    D(5,3,4,7)            179.9656         estimate D2E/DX2                !
 ! D5    D(9,3,4,6)            179.9399         estimate D2E/DX2                !
 ! D6    D(9,3,4,7)              0.0287         estimate D2E/DX2                !
 ! D7    D(4,3,5,10)           -60.6329         estimate D2E/DX2                !
 ! D8    D(4,3,5,11)          -179.9589         estimate D2E/DX2                !
 ! D9    D(4,3,5,12)            60.6302         estimate D2E/DX2                !
 ! D10   D(9,3,5,10)           119.3051         estimate D2E/DX2                !
 ! D11   D(9,3,5,11)            -0.0209         estimate D2E/DX2                !
 ! D12   D(9,3,5,12)          -119.4318         estimate D2E/DX2                !
 ! D13   D(3,4,6,13)           -59.9007         estimate D2E/DX2                !
 ! D14   D(3,4,6,14)            60.6655         estimate D2E/DX2                !
 ! D15   D(3,4,6,15)          -179.6204         estimate D2E/DX2                !
 ! D16   D(7,4,6,13)           120.0096         estimate D2E/DX2                !
 ! D17   D(7,4,6,14)          -119.4242         estimate D2E/DX2                !
 ! D18   D(7,4,6,15)             0.2899         estimate D2E/DX2                !
 ! D19   D(3,4,7,16)            59.926          estimate D2E/DX2                !
 ! D20   D(3,4,7,17)          -179.9926         estimate D2E/DX2                !
 ! D21   D(3,4,7,18)           -59.9306         estimate D2E/DX2                !
 ! D22   D(6,4,7,16)          -119.9868         estimate D2E/DX2                !
 ! D23   D(6,4,7,17)             0.0946         estimate D2E/DX2                !
 ! D24   D(6,4,7,18)           120.1566         estimate D2E/DX2                !
 ! D25   D(3,5,10,1)           -51.5004         estimate D2E/DX2                !
 ! D26   D(11,5,10,1)           68.4839         estimate D2E/DX2                !
 ! D27   D(12,5,10,1)         -173.0033         estimate D2E/DX2                !
 --------------------------------------------------------------------------------
 Trust Radius=3.00D-01 FncErr=1.00D-05 GrdErr=1.00D-04
 Number of steps in this run=     82 maximum allowed number of steps=    108.
 GradGradGradGradGradGradGradGradGradGradGradGradGradGradGradGradGradGrad

 Leave Link  103 at Tue Jun 12 16:00:52 2018, MaxMem=  671088640 cpu:       0.2
 (Enter /shared/apps/gaussian/G09_LINUX_LINDA/g09/l202.exe)
                          Input orientation:                          
 ---------------------------------------------------------------------
 Center     Atomic      Atomic             Coordinates (Angstroms)
 Number     Number       Type             X           Y           Z
 ---------------------------------------------------------------------
      1          8           0       -2.694300   -0.004900    0.133500
      2          8           0       -3.476100   -1.057800    0.024300
      3          6           0        0.337300    0.556200   -0.985100
      4          6           0        0.988000   -0.111800   -0.010200
      5          6           0       -0.821900    1.473700   -0.722500
      6          6           0        0.588800    0.022400    1.440200
      7          6           0        2.138600   -1.007300   -0.389900
      8          1           0       -2.975800   -1.785700    0.472100
      9          1           0        0.655600    0.433800   -2.017500
     10          1           0       -1.804700    0.809000   -0.165000
     11          1           0       -1.183800    1.901000   -1.681100
     12          1           0       -0.508500    2.307600   -0.060200
     13          1           0        0.679200    1.081100    1.762100
     14          1           0       -0.459100   -0.317100    1.578100
     15          1           0        1.236700   -0.591900    2.099400
     16          1           0        2.928000   -0.410500   -0.894100
     17          1           0        2.587700   -1.497800    0.498600
     18          1           0        1.784400   -1.799800   -1.082700
 ---------------------------------------------------------------------
                    Distance matrix (angstroms):
                    1          2          3          4          5
     1  O    0.000000
     2  O    1.315954   0.000000
     3  C    3.279740   4.262148   0.000000
     4  C    3.686653   4.563364   1.349098   0.000000
     5  C    2.534734   3.743124   1.501502   2.509366   0.000000
     6  C    3.533689   4.437907   2.496052   1.510308   2.962029
     7  C    4.963434   5.630184   2.458348   1.506643   3.876925
     8  H    1.834432   0.990284   4.310981   4.329696   4.085345
     9  H    4.005133   4.844044   1.087266   2.106519   2.222931
    10  H    1.242145   2.512838   2.307517   2.944658   1.310926
    11  H    3.034277   4.113092   2.146310   3.399998   1.110167
    12  H    3.187930   4.487729   2.153653   2.845261   1.110068
    13  H    3.900287   4.986117   2.817716   2.158568   2.929279
    14  H    2.679637   3.473503   2.822570   2.158459   2.937916
    15  H    4.434196   5.170453   3.411919   2.177788   4.058036
    16  H    5.729811   6.501919   2.766680   2.152696   4.200167
    17  H    5.501052   6.098215   3.388891   2.176905   4.684685
    18  H    4.975898   5.426682   2.766651   2.152639   4.199803
                    6          7          8          9         10
     6  C    0.000000
     7  C    2.609871   0.000000
     8  H    4.112519   5.244620   0.000000
     9  H    3.482729   2.631566   4.930655   0.000000
    10  H    2.987348   4.347314   2.917163   3.102516   0.000000
    11  H    4.051390   4.600407   4.630258   2.376812   1.968893
    12  H    2.945744   4.254927   4.808952   2.949115   1.984167
    13  H    1.110242   3.335021   4.820961   3.834701   3.155553
    14  H    1.110122   3.331283   3.116697   3.838586   2.473285
    15  H    1.109812   2.680036   4.671019   4.282360   4.042294
    16  H    3.332899   1.110649   6.213898   2.671829   4.941378
    17  H    2.682018   1.109826   5.571007   3.714142   5.005484
    18  H    3.333901   1.110624   5.007705   2.671518   4.530966
                   11         12         13         14         15
    11  H    0.000000
    12  H    1.802407   0.000000
    13  H    3.999829   2.497141   0.000000
    14  H    4.008434   3.094433   1.812332   0.000000
    15  H    5.134740   4.014560   1.795413   1.795273   0.000000
    16  H    4.782186   4.460156   3.786472   4.194394   3.443028
    17  H    5.525138   4.937589   3.448120   3.441273   2.282196
    18  H    4.781654   4.813900   4.196896   3.783061   3.447428
                   16         17         18
    16  H    0.000000
    17  H    1.799344   0.000000
    18  H    1.809294   1.799168   0.000000
 Stoichiometry    C5H11O2(2)
 Framework group  C1[X(C5H11O2)]
 Deg. of freedom    48
 Full point group                 C1      NOp   1
 Largest Abelian subgroup         C1      NOp   1
 Largest concise Abelian subgroup C1      NOp   1
                         Standard orientation:                         
 ---------------------------------------------------------------------
 Center     Atomic      Atomic             Coordinates (Angstroms)
 Number     Number       Type             X           Y           Z
 ---------------------------------------------------------------------
      1          8           0       -2.222663   -0.019976    0.138637
      2          8           0       -3.010527   -0.812419   -0.556373
      3          6           0        0.836390    1.018075   -0.428233
      4          6           0        1.460860   -0.095773    0.007018
      5          6           0       -0.320594    1.648414    0.291885
      6          6           0        1.032175   -0.796685    1.274291
      7          6           0        2.611903   -0.641670   -0.797388
      8          1           0       -2.525757   -1.675210   -0.591757
      9          1           0        1.175451    1.494175   -1.345028
     10          1           0       -1.320348    0.803506    0.363647
     11          1           0       -0.658643    2.549073   -0.262198
     12          1           0       -0.014493    1.956560    1.313451
     13          1           0        1.124364   -0.106666    2.139169
     14          1           0       -0.021138   -1.135105    1.182778
     15          1           0        1.660961   -1.687889    1.479392
     16          1           0        3.416627    0.120727   -0.866026
     17          1           0        3.038098   -1.556513   -0.335725
     18          1           0        2.265995   -0.897672   -1.821251
 ---------------------------------------------------------------------
 Rotational constants (GHZ):      3.5133442      1.1336463      1.0410132
 Leave Link  202 at Tue Jun 12 16:00:53 2018, MaxMem=  671088640 cpu:       0.7
 (Enter /shared/apps/gaussian/G09_LINUX_LINDA/g09/l301.exe)
 Standard basis: 6-311+G(2df,2p) (5D, 7F)
 Ernie: Thresh=  0.10000D-02 Tol=  0.10000D-05 Strict=F.
 There are   337 symmetry adapted basis functions of A   symmetry.
 Integral buffers will be    131072 words long.
 Raffenetti 2 integral format.
 Two-electron integral symmetry is turned on.
   337 basis functions,   485 primitive gaussians,   372 cartesian basis functions
    29 alpha electrons       28 beta electrons
       nuclear repulsion energy       299.2568299134 Hartrees.
 IExCor= 4336 DFT=T Ex+Corr=M062X ExCW=0 ScaHFX=  0.540000
 ScaDFX=  1.000000  1.000000  1.000000  1.000000 ScalE2=  1.000000  1.000000
 IRadAn=      1 IRanWt=     -1 IRanGd=            0 ICorTp=0
 NAtoms=   18 NActive=   18 NUniq=   18 SFac= 1.00D+00 NAtFMM=   50 NAOKFM=F Big=F
 Leave Link  301 at Tue Jun 12 16:00:53 2018, MaxMem=  671088640 cpu:       1.0
 (Enter /shared/apps/gaussian/G09_LINUX_LINDA/g09/l302.exe)
 NPDir=0 NMtPBC=     1 NCelOv=     1 NCel=       1 NClECP=     1 NCelD=      1
         NCelK=      1 NCelE2=     1 NClLst=     1 CellRange=     0.0.
 One-electron integrals computed using PRISM.
 NBasis=   337 RedAO= T  NBF=   337
 NBsUse=   337 1.00D-06 NBFU=   337
 Precomputing XC quadrature grid using
 IXCGrd= 2 IRadAn=           1 IRanWt=          -1 IRanGd=           0 AccXCQ= 0.00D+00.
 NRdTot=     773 NPtTot=       56890 NUsed=       62548 NTot=       62580
 NSgBfM=   372   372   372   372   372 NAtAll=    18    18.
 Leave Link  302 at Tue Jun 12 16:00:55 2018, MaxMem=  671088640 cpu:      17.8
 (Enter /shared/apps/gaussian/G09_LINUX_LINDA/g09/l303.exe)
 DipDrv:  MaxL=1.
 Leave Link  303 at Tue Jun 12 16:00:55 2018, MaxMem=  671088640 cpu:       3.7
 (Enter /shared/apps/gaussian/G09_LINUX_LINDA/g09/l401.exe)
 Harris functional with IExCor= 1009 diagonalized for initial guess.
 ExpMin= 4.38D-02 ExpMax= 8.59D+03 ExpMxC= 1.30D+03 IAcc=2 IRadAn=         1 AccDes= 0.00D+00
 HarFok:  IExCor= 1009 AccDes= 0.00D+00 IRadAn=         1 IDoV= 1
 ScaDFX=  1.000000  1.000000  1.000000  1.000000
 FoFCou: FMM=F IPFlag=           0 FMFlag=      100000 FMFlg1=           0
         NFxFlg=           0 DoJE=T BraDBF=F KetDBF=T FulRan=T
         Omega=  0.000000  0.000000  1.000000  0.000000  0.000000 ICntrl=     500 IOpCl=  0
         NMat0=    1 NMatS0=    1 NMatT0=    0 NMatD0=    1 NMtDS0=    0 NMtDT0=    0
         I1Cent=           4 NGrid=           0.
 Petite list used in FoFCou.
 Harris En= -347.232911700318    
 Initial guess orbital symmetries:
 Alpha Orbitals:
       Occupied  (A) (A) (A) (A) (A) (A) (A) (A) (A) (A) (A) (A)
                 (A) (A) (A) (A) (A) (A) (A) (A) (A) (A) (A) (A)
                 (A) (A) (A) (A) (A)
       Virtual   (A) (A) (A) (A) (A) (A) (A) (A) (A) (A) (A) (A)
                 (A) (A) (A) (A) (A) (A) (A) (A) (A) (A) (A) (A)
                 (A) (A) (A) (A) (A) (A) (A) (A) (A) (A) (A) (A)
                 (A) (A) (A) (A) (A) (A) (A) (A) (A) (A) (A) (A)
                 (A) (A) (A) (A) (A) (A) (A) (A) (A) (A) (A) (A)
                 (A) (A) (A) (A) (A) (A) (A) (A) (A) (A) (A) (A)
                 (A) (A) (A) (A) (A) (A) (A) (A) (A) (A) (A) (A)
                 (A) (A) (A) (A) (A) (A) (A) (A) (A) (A) (A) (A)
                 (A) (A) (A) (A) (A) (A) (A) (A) (A) (A) (A) (A)
                 (A) (A) (A) (A) (A) (A) (A) (A) (A) (A) (A) (A)
                 (A) (A) (A) (A) (A) (A) (A) (A) (A) (A) (A) (A)
                 (A) (A) (A) (A) (A) (A) (A) (A) (A) (A) (A) (A)
                 (A) (A) (A) (A) (A) (A) (A) (A) (A) (A) (A) (A)
                 (A) (A) (A) (A) (A) (A) (A) (A) (A) (A) (A) (A)
                 (A) (A) (A) (A) (A) (A) (A) (A) (A) (A) (A) (A)
                 (A) (A) (A) (A) (A) (A) (A) (A) (A) (A) (A) (A)
                 (A) (A) (A) (A) (A) (A) (A) (A) (A) (A) (A) (A)
                 (A) (A) (A) (A) (A) (A) (A) (A) (A) (A) (A) (A)
                 (A) (A) (A) (A) (A) (A) (A) (A) (A) (A) (A) (A)
                 (A) (A) (A) (A) (A) (A) (A) (A) (A) (A) (A) (A)
                 (A) (A) (A) (A) (A) (A) (A) (A) (A) (A) (A) (A)
                 (A) (A) (A) (A) (A) (A) (A) (A) (A) (A) (A) (A)
                 (A) (A) (A) (A) (A) (A) (A) (A) (A) (A) (A) (A)
                 (A) (A) (A) (A) (A) (A) (A) (A) (A) (A) (A) (A)
                 (A) (A) (A) (A) (A) (A) (A) (A) (A) (A) (A) (A)
                 (A) (A) (A) (A) (A) (A) (A) (A)
 Beta  Orbitals:
       Occupied  (A) (A) (A) (A) (A) (A) (A) (A) (A) (A) (A) (A)
                 (A) (A) (A) (A) (A) (A) (A) (A) (A) (A) (A) (A)
                 (A) (A) (A) (A)
       Virtual   (A) (A) (A) (A) (A) (A) (A) (A) (A) (A) (A) (A)
                 (A) (A) (A) (A) (A) (A) (A) (A) (A) (A) (A) (A)
                 (A) (A) (A) (A) (A) (A) (A) (A) (A) (A) (A) (A)
                 (A) (A) (A) (A) (A) (A) (A) (A) (A) (A) (A) (A)
                 (A) (A) (A) (A) (A) (A) (A) (A) (A) (A) (A) (A)
                 (A) (A) (A) (A) (A) (A) (A) (A) (A) (A) (A) (A)
                 (A) (A) (A) (A) (A) (A) (A) (A) (A) (A) (A) (A)
                 (A) (A) (A) (A) (A) (A) (A) (A) (A) (A) (A) (A)
                 (A) (A) (A) (A) (A) (A) (A) (A) (A) (A) (A) (A)
                 (A) (A) (A) (A) (A) (A) (A) (A) (A) (A) (A) (A)
                 (A) (A) (A) (A) (A) (A) (A) (A) (A) (A) (A) (A)
                 (A) (A) (A) (A) (A) (A) (A) (A) (A) (A) (A) (A)
                 (A) (A) (A) (A) (A) (A) (A) (A) (A) (A) (A) (A)
                 (A) (A) (A) (A) (A) (A) (A) (A) (A) (A) (A) (A)
                 (A) (A) (A) (A) (A) (A) (A) (A) (A) (A) (A) (A)
                 (A) (A) (A) (A) (A) (A) (A) (A) (A) (A) (A) (A)
                 (A) (A) (A) (A) (A) (A) (A) (A) (A) (A) (A) (A)
                 (A) (A) (A) (A) (A) (A) (A) (A) (A) (A) (A) (A)
                 (A) (A) (A) (A) (A) (A) (A) (A) (A) (A) (A) (A)
                 (A) (A) (A) (A) (A) (A) (A) (A) (A) (A) (A) (A)
                 (A) (A) (A) (A) (A) (A) (A) (A) (A) (A) (A) (A)
                 (A) (A) (A) (A) (A) (A) (A) (A) (A) (A) (A) (A)
                 (A) (A) (A) (A) (A) (A) (A) (A) (A) (A) (A) (A)
                 (A) (A) (A) (A) (A) (A) (A) (A) (A) (A) (A) (A)
                 (A) (A) (A) (A) (A) (A) (A) (A) (A) (A) (A) (A)
                 (A) (A) (A) (A) (A) (A) (A) (A) (A)
 The electronic state of the initial guess is 2-A.
 Initial guess <Sx>= 0.0000 <Sy>= 0.0000 <Sz>= 0.5000 <S**2>= 0.7500 S= 0.5000
 Leave Link  401 at Tue Jun 12 16:01:01 2018, MaxMem=  671088640 cpu:      56.8
 (Enter /shared/apps/gaussian/G09_LINUX_LINDA/g09/l502.exe)
 UHF open shell SCF:
 Requested convergence on RMS density matrix=1.00D-08 within 128 cycles.
 Requested convergence on MAX density matrix=1.00D-06.
 Requested convergence on             energy=1.00D-06.
 No special actions if energy rises.
 Using DIIS extrapolation, IDIIS=  1040.
 Integral symmetry usage will be decided dynamically.
        62373 words used for storage of precomputed grid.
 IEnd=      505827 IEndB=      505827 NGot=   671088640 MDV=   670738210
 LenX=   670738210 LenY=   670599385
 Fock matrices will be formed incrementally for  20 cycles.

 Cycle   1  Pass 1  IDiag  1:
 FoFCou: FMM=F IPFlag=           0 FMFlag=      100000 FMFlg1=           0
         NFxFlg=           0 DoJE=F BraDBF=F KetDBF=F FulRan=T
         Omega=  0.000000  0.000000  1.000000  0.000000  0.000000 ICntrl=       0 IOpCl=  1
         NMat0=    1 NMatS0=    1 NMatT0=    0 NMatD0=    1 NMtDS0=    0 NMtDT0=    0
         I1Cent=           0 NGrid=           0.
 Symmetry not used in FoFCou.
 E= -347.060318795119    
 DIIS: error= 2.30D-02 at cycle   1 NSaved=   1.
 NSaved= 1 IEnMin= 1 EnMin= -347.060318795119     IErMin= 1 ErrMin= 2.30D-02
 ErrMax= 2.30D-02 EMaxC= 1.00D-01 BMatC= 1.16D+00 BMatP= 1.16D+00
 IDIUse=3 WtCom= 7.70D-01 WtEn= 2.30D-01
 Coeff-Com:  0.100D+01
 Coeff-En:   0.100D+01
 Coeff:      0.100D+01
 Gap=     0.585 Goal=   None    Shift=    0.000
 Gap=     0.275 Goal=   None    Shift=    0.000
 GapD=    0.275 DampG=1.000 DampE=0.500 DampFc=0.5000 IDamp=-1.
 Damping current iteration by 5.00D-01
 RMSDP=5.29D-03 MaxDP=3.11D-01              OVMax= 4.58D-01

 Cycle   2  Pass 1  IDiag  1:
 RMSU=  1.84D-03    CP:  9.09D-01
 E= -347.174295918238     Delta-E=       -0.113977123120 Rises=F Damp=T
 DIIS: error= 9.70D-03 at cycle   2 NSaved=   2.
 NSaved= 2 IEnMin= 2 EnMin= -347.174295918238     IErMin= 2 ErrMin= 9.70D-03
 ErrMax= 9.70D-03 EMaxC= 1.00D-01 BMatC= 1.12D-01 BMatP= 1.16D+00
 IDIUse=3 WtCom= 9.03D-01 WtEn= 9.70D-02
 Coeff-Com: -0.199D-01 0.102D+01
 Coeff-En:   0.765D-01 0.923D+00
 Coeff:     -0.106D-01 0.101D+01
 Gap=     0.315 Goal=   None    Shift=    0.000
 Gap=     0.142 Goal=   None    Shift=    0.000
 RMSDP=1.95D-03 MaxDP=1.11D-01 DE=-1.14D-01 OVMax= 4.48D-01

 Cycle   3  Pass 1  IDiag  1:
 RMSU=  1.17D-03    CP:  9.02D-01  6.53D-01
 E= -347.304004649244     Delta-E=       -0.129708731006 Rises=F Damp=F
 DIIS: error= 7.05D-03 at cycle   3 NSaved=   3.
 NSaved= 3 IEnMin= 3 EnMin= -347.304004649244     IErMin= 3 ErrMin= 7.05D-03
 ErrMax= 7.05D-03 EMaxC= 1.00D-01 BMatC= 9.95D-02 BMatP= 1.12D-01
 IDIUse=3 WtCom= 9.30D-01 WtEn= 7.05D-02
 Coeff-Com: -0.842D-01 0.534D+00 0.550D+00
 Coeff-En:   0.000D+00 0.000D+00 0.100D+01
 Coeff:     -0.783D-01 0.497D+00 0.582D+00
 Gap=     0.288 Goal=   None    Shift=    0.000
 Gap=     0.141 Goal=   None    Shift=    0.000
 RMSDP=6.65D-04 MaxDP=2.95D-02 DE=-1.30D-01 OVMax= 7.91D-02

 Cycle   4  Pass 1  IDiag  1:
 RMSU=  3.55D-04    CP:  8.91D-01  7.66D-01  8.36D-01
 E= -347.324443671710     Delta-E=       -0.020439022466 Rises=F Damp=F
 DIIS: error= 1.80D-03 at cycle   4 NSaved=   4.
 NSaved= 4 IEnMin= 4 EnMin= -347.324443671710     IErMin= 4 ErrMin= 1.80D-03
 ErrMax= 1.80D-03 EMaxC= 1.00D-01 BMatC= 6.17D-03 BMatP= 9.95D-02
 IDIUse=3 WtCom= 9.82D-01 WtEn= 1.80D-02
 Coeff-Com: -0.367D-01 0.825D-01 0.213D+00 0.742D+00
 Coeff-En:   0.000D+00 0.000D+00 0.000D+00 0.100D+01
 Coeff:     -0.360D-01 0.810D-01 0.209D+00 0.746D+00
 Gap=     0.272 Goal=   None    Shift=    0.000
 Gap=     0.155 Goal=   None    Shift=    0.000
 RMSDP=1.90D-04 MaxDP=1.35D-02 DE=-2.04D-02 OVMax= 3.00D-02

 Cycle   5  Pass 1  IDiag  1:
 RMSU=  1.09D-04    CP:  8.88D-01  7.67D-01  8.55D-01  1.09D+00
 E= -347.325982041385     Delta-E=       -0.001538369674 Rises=F Damp=F
 DIIS: error= 1.00D-03 at cycle   5 NSaved=   5.
 NSaved= 5 IEnMin= 5 EnMin= -347.325982041385     IErMin= 5 ErrMin= 1.00D-03
 ErrMax= 1.00D-03 EMaxC= 1.00D-01 BMatC= 5.46D-04 BMatP= 6.17D-03
 IDIUse=3 WtCom= 9.90D-01 WtEn= 1.00D-02
 Coeff-Com: -0.802D-02 0.843D-02 0.266D-01 0.216D+00 0.757D+00
 Coeff-En:   0.000D+00 0.000D+00 0.000D+00 0.000D+00 0.100D+01
 Coeff:     -0.794D-02 0.834D-02 0.263D-01 0.214D+00 0.760D+00
 Gap=     0.273 Goal=   None    Shift=    0.000
 Gap=     0.162 Goal=   None    Shift=    0.000
 RMSDP=7.32D-05 MaxDP=4.08D-03 DE=-1.54D-03 OVMax= 1.56D-02

 Cycle   6  Pass 1  IDiag  1:
 RMSU=  3.33D-05    CP:  8.89D-01  7.59D-01  8.59D-01  1.13D+00  1.15D+00
 E= -347.326229314407     Delta-E=       -0.000247273023 Rises=F Damp=F
 DIIS: error= 6.90D-04 at cycle   6 NSaved=   6.
 NSaved= 6 IEnMin= 6 EnMin= -347.326229314407     IErMin= 6 ErrMin= 6.90D-04
 ErrMax= 6.90D-04 EMaxC= 1.00D-01 BMatC= 4.42D-04 BMatP= 5.46D-04
 IDIUse=3 WtCom= 9.93D-01 WtEn= 6.90D-03
 Coeff-Com:  0.851D-02-0.258D-01-0.631D-01-0.124D+00 0.510D+00 0.694D+00
 Coeff-En:   0.000D+00 0.000D+00 0.000D+00 0.000D+00 0.000D+00 0.100D+01
 Coeff:      0.845D-02-0.256D-01-0.627D-01-0.123D+00 0.507D+00 0.696D+00
 Gap=     0.272 Goal=   None    Shift=    0.000
 Gap=     0.163 Goal=   None    Shift=    0.000
 RMSDP=6.85D-05 MaxDP=4.15D-03 DE=-2.47D-04 OVMax= 1.13D-02

 Cycle   7  Pass 1  IDiag  1:
 RMSU=  2.77D-05    CP:  8.90D-01  7.55D-01  8.56D-01  1.19D+00  1.40D+00
                    CP:  1.29D+00
 E= -347.326392922382     Delta-E=       -0.000163607975 Rises=F Damp=F
 DIIS: error= 2.88D-04 at cycle   7 NSaved=   7.
 NSaved= 7 IEnMin= 7 EnMin= -347.326392922382     IErMin= 7 ErrMin= 2.88D-04
 ErrMax= 2.88D-04 EMaxC= 1.00D-01 BMatC= 2.63D-05 BMatP= 4.42D-04
 IDIUse=3 WtCom= 9.97D-01 WtEn= 2.88D-03
 Coeff-Com:  0.362D-02-0.574D-02-0.233D-01-0.876D-01-0.130D-01 0.970D-01
 Coeff-Com:  0.103D+01
 Coeff-En:   0.000D+00 0.000D+00 0.000D+00 0.000D+00 0.000D+00 0.000D+00
 Coeff-En:   0.100D+01
 Coeff:      0.361D-02-0.572D-02-0.233D-01-0.874D-01-0.129D-01 0.967D-01
 Coeff:      0.103D+01
 Gap=     0.272 Goal=   None    Shift=    0.000
 Gap=     0.164 Goal=   None    Shift=    0.000
 RMSDP=3.53D-05 MaxDP=1.34D-03 DE=-1.64D-04 OVMax= 9.41D-03

 Cycle   8  Pass 1  IDiag  1:
 RMSU=  1.01D-05    CP:  8.90D-01  7.55D-01  8.53D-01  1.20D+00  1.50D+00
                    CP:  1.51D+00  1.46D+00
 E= -347.326430174832     Delta-E=       -0.000037252450 Rises=F Damp=F
 DIIS: error= 1.07D-04 at cycle   8 NSaved=   8.
 NSaved= 8 IEnMin= 8 EnMin= -347.326430174832     IErMin= 8 ErrMin= 1.07D-04
 ErrMax= 1.07D-04 EMaxC= 1.00D-01 BMatC= 1.15D-05 BMatP= 2.63D-05
 IDIUse=3 WtCom= 9.99D-01 WtEn= 1.07D-03
 Coeff-Com: -0.338D-03 0.246D-02 0.815D-03-0.682D-02-0.614D-01-0.117D+00
 Coeff-Com:  0.359D+00 0.823D+00
 Coeff-En:   0.000D+00 0.000D+00 0.000D+00 0.000D+00 0.000D+00 0.000D+00
 Coeff-En:   0.000D+00 0.100D+01
 Coeff:     -0.338D-03 0.246D-02 0.814D-03-0.682D-02-0.613D-01-0.117D+00
 Coeff:      0.359D+00 0.823D+00
 Gap=     0.272 Goal=   None    Shift=    0.000
 Gap=     0.164 Goal=   None    Shift=    0.000
 RMSDP=1.41D-05 MaxDP=6.65D-04 DE=-3.73D-05 OVMax= 3.14D-03

 Cycle   9  Pass 1  IDiag  1:
 RMSU=  5.34D-06    CP:  8.90D-01  7.56D-01  8.52D-01  1.20D+00  1.52D+00
                    CP:  1.59D+00  1.65D+00  1.35D+00
 E= -347.326437170917     Delta-E=       -0.000006996085 Rises=F Damp=F
 DIIS: error= 3.66D-05 at cycle   9 NSaved=   9.
 NSaved= 9 IEnMin= 9 EnMin= -347.326437170917     IErMin= 9 ErrMin= 3.66D-05
 ErrMax= 3.66D-05 EMaxC= 1.00D-01 BMatC= 2.59D-06 BMatP= 1.15D-05
 IDIUse=1 WtCom= 1.00D+00 WtEn= 0.00D+00
 Coeff-Com: -0.106D-02 0.224D-02 0.493D-02 0.204D-01-0.101D-01-0.935D-01
 Coeff-Com: -0.117D+00 0.245D+00 0.948D+00
 Coeff:     -0.106D-02 0.224D-02 0.493D-02 0.204D-01-0.101D-01-0.935D-01
 Coeff:     -0.117D+00 0.245D+00 0.948D+00
 Gap=     0.271 Goal=   None    Shift=    0.000
 Gap=     0.164 Goal=   None    Shift=    0.000
 RMSDP=9.68D-06 MaxDP=4.97D-04 DE=-7.00D-06 OVMax= 1.88D-03

 Cycle  10  Pass 1  IDiag  1:
 RMSU=  2.21D-06    CP:  8.90D-01  7.57D-01  8.51D-01  1.21D+00  1.53D+00
                    CP:  1.62D+00  1.78D+00  1.65D+00  1.39D+00
 E= -347.326439610535     Delta-E=       -0.000002439618 Rises=F Damp=F
 DIIS: error= 2.53D-05 at cycle  10 NSaved=  10.
 NSaved=10 IEnMin=10 EnMin= -347.326439610535     IErMin=10 ErrMin= 2.53D-05
 ErrMax= 2.53D-05 EMaxC= 1.00D-01 BMatC= 6.35D-07 BMatP= 2.59D-06
 IDIUse=1 WtCom= 1.00D+00 WtEn= 0.00D+00
 Coeff-Com: -0.188D-03 0.243D-03 0.237D-03 0.441D-02 0.965D-02-0.995D-02
 Coeff-Com: -0.563D-01-0.985D-01 0.227D+00 0.923D+00
 Coeff:     -0.188D-03 0.243D-03 0.237D-03 0.441D-02 0.965D-02-0.995D-02
 Coeff:     -0.563D-01-0.985D-01 0.227D+00 0.923D+00
 Gap=     0.271 Goal=   None    Shift=    0.000
 Gap=     0.164 Goal=   None    Shift=    0.000
 RMSDP=4.18D-06 MaxDP=3.90D-04 DE=-2.44D-06 OVMax= 6.68D-04

 Cycle  11  Pass 1  IDiag  1:
 RMSU=  1.21D-06    CP:  8.90D-01  7.57D-01  8.50D-01  1.21D+00  1.53D+00
                    CP:  1.63D+00  1.80D+00  1.73D+00  1.69D+00  1.37D+00
 E= -347.326440248701     Delta-E=       -0.000000638166 Rises=F Damp=F
 DIIS: error= 1.71D-05 at cycle  11 NSaved=  11.
 NSaved=11 IEnMin=11 EnMin= -347.326440248701     IErMin=11 ErrMin= 1.71D-05
 ErrMax= 1.71D-05 EMaxC= 1.00D-01 BMatC= 3.13D-07 BMatP= 6.35D-07
 IDIUse=1 WtCom= 1.00D+00 WtEn= 0.00D+00
 Coeff-Com:  0.317D-03-0.713D-03-0.220D-02-0.616D-02 0.114D-01 0.328D-01
 Coeff-Com:  0.263D-01-0.173D+00-0.260D+00 0.533D+00 0.838D+00
 Coeff:      0.317D-03-0.713D-03-0.220D-02-0.616D-02 0.114D-01 0.328D-01
 Coeff:      0.263D-01-0.173D+00-0.260D+00 0.533D+00 0.838D+00
 Gap=     0.271 Goal=   None    Shift=    0.000
 Gap=     0.164 Goal=   None    Shift=    0.000
 RMSDP=2.81D-06 MaxDP=2.01D-04 DE=-6.38D-07 OVMax= 5.75D-04

 Cycle  12  Pass 1  IDiag  1:
 RMSU=  8.09D-07    CP:  8.90D-01  7.57D-01  8.50D-01  1.21D+00  1.54D+00
                    CP:  1.63D+00  1.81D+00  1.78D+00  1.86D+00  1.82D+00
                    CP:  1.40D+00
 E= -347.326440640079     Delta-E=       -0.000000391378 Rises=F Damp=F
 DIIS: error= 9.52D-06 at cycle  12 NSaved=  12.
 NSaved=12 IEnMin=12 EnMin= -347.326440640079     IErMin=12 ErrMin= 9.52D-06
 ErrMax= 9.52D-06 EMaxC= 1.00D-01 BMatC= 7.19D-08 BMatP= 3.13D-07
 IDIUse=1 WtCom= 1.00D+00 WtEn= 0.00D+00
 Coeff-Com:  0.277D-04-0.358D-04-0.249D-03-0.113D-02-0.271D-02 0.372D-02
 Coeff-Com:  0.168D-01 0.266D-01-0.521D-01-0.318D+00-0.242D-01 0.135D+01
 Coeff:      0.277D-04-0.358D-04-0.249D-03-0.113D-02-0.271D-02 0.372D-02
 Coeff:      0.168D-01 0.266D-01-0.521D-01-0.318D+00-0.242D-01 0.135D+01
 Gap=     0.271 Goal=   None    Shift=    0.000
 Gap=     0.164 Goal=   None    Shift=    0.000
 RMSDP=2.26D-06 MaxDP=9.45D-05 DE=-3.91D-07 OVMax= 6.28D-04

 Cycle  13  Pass 1  IDiag  1:
 RMSU=  4.51D-07    CP:  8.90D-01  7.57D-01  8.49D-01  1.21D+00  1.54D+00
                    CP:  1.63D+00  1.81D+00  1.80D+00  1.96D+00  2.12D+00
                    CP:  2.00D+00  1.87D+00
 E= -347.326440857938     Delta-E=       -0.000000217859 Rises=F Damp=F
 DIIS: error= 6.21D-06 at cycle  13 NSaved=  13.
 NSaved=13 IEnMin=13 EnMin= -347.326440857938     IErMin=13 ErrMin= 6.21D-06
 ErrMax= 6.21D-06 EMaxC= 1.00D-01 BMatC= 2.77D-08 BMatP= 7.19D-08
 IDIUse=1 WtCom= 1.00D+00 WtEn= 0.00D+00
 Coeff-Com: -0.940D-04 0.212D-03 0.487D-03 0.167D-02-0.329D-02-0.878D-02
 Coeff-Com: -0.743D-02 0.490D-01 0.746D-01-0.155D+00-0.258D+00-0.524D-02
 Coeff-Com:  0.131D+01
 Coeff:     -0.940D-04 0.212D-03 0.487D-03 0.167D-02-0.329D-02-0.878D-02
 Coeff:     -0.743D-02 0.490D-01 0.746D-01-0.155D+00-0.258D+00-0.524D-02
 Coeff:      0.131D+01
 Gap=     0.271 Goal=   None    Shift=    0.000
 Gap=     0.164 Goal=   None    Shift=    0.000
 RMSDP=1.56D-06 MaxDP=7.05D-05 DE=-2.18D-07 OVMax= 5.05D-04

 Cycle  14  Pass 1  IDiag  1:
 RMSU=  2.98D-07    CP:  8.90D-01  7.57D-01  8.49D-01  1.21D+00  1.54D+00
                    CP:  1.63D+00  1.82D+00  1.81D+00  2.01D+00  2.31D+00
                    CP:  2.31D+00  2.57D+00  1.74D+00
 E= -347.326440959239     Delta-E=       -0.000000101302 Rises=F Damp=F
 DIIS: error= 3.85D-06 at cycle  14 NSaved=  14.
 NSaved=14 IEnMin=14 EnMin= -347.326440959239     IErMin=14 ErrMin= 3.85D-06
 ErrMax= 3.85D-06 EMaxC= 1.00D-01 BMatC= 1.23D-08 BMatP= 2.77D-08
 IDIUse=1 WtCom= 1.00D+00 WtEn= 0.00D+00
 Coeff-Com: -0.200D-04 0.428D-04 0.150D-03 0.643D-03 0.407D-03-0.269D-02
 Coeff-Com: -0.863D-02-0.842D-03 0.295D-01 0.118D+00-0.333D-01-0.630D+00
 Coeff-Com:  0.206D+00 0.132D+01
 Coeff:     -0.200D-04 0.428D-04 0.150D-03 0.643D-03 0.407D-03-0.269D-02
 Coeff:     -0.863D-02-0.842D-03 0.295D-01 0.118D+00-0.333D-01-0.630D+00
 Coeff:      0.206D+00 0.132D+01
 Gap=     0.271 Goal=   None    Shift=    0.000
 Gap=     0.164 Goal=   None    Shift=    0.000
 RMSDP=1.35D-06 MaxDP=6.51D-05 DE=-1.01D-07 OVMax= 4.58D-04

 Cycle  15  Pass 1  IDiag  1:
 RMSU=  1.83D-07    CP:  8.90D-01  7.57D-01  8.49D-01  1.21D+00  1.54D+00
                    CP:  1.63D+00  1.82D+00  1.82D+00  2.05D+00  2.45D+00
                    CP:  2.55D+00  3.00D+00  2.54D+00  2.01D+00
 E= -347.326441011494     Delta-E=       -0.000000052255 Rises=F Damp=F
 DIIS: error= 2.04D-06 at cycle  15 NSaved=  15.
 NSaved=15 IEnMin=15 EnMin= -347.326441011494     IErMin=15 ErrMin= 2.04D-06
 ErrMax= 2.04D-06 EMaxC= 1.00D-01 BMatC= 4.79D-09 BMatP= 1.23D-08
 IDIUse=1 WtCom= 1.00D+00 WtEn= 0.00D+00
 Coeff-Com:  0.348D-04-0.755D-04-0.697D-04-0.419D-03 0.135D-02 0.310D-02
 Coeff-Com: -0.127D-02-0.183D-01-0.248D-01 0.107D+00 0.102D+00-0.180D+00
 Coeff-Com: -0.529D+00 0.339D+00 0.120D+01
 Coeff:      0.348D-04-0.755D-04-0.697D-04-0.419D-03 0.135D-02 0.310D-02
 Coeff:     -0.127D-02-0.183D-01-0.248D-01 0.107D+00 0.102D+00-0.180D+00
 Coeff:     -0.529D+00 0.339D+00 0.120D+01
 Gap=     0.271 Goal=   None    Shift=    0.000
 Gap=     0.164 Goal=   None    Shift=    0.000
 RMSDP=9.01D-07 MaxDP=4.43D-05 DE=-5.23D-08 OVMax= 3.11D-04

 Cycle  16  Pass 1  IDiag  1:
 RMSU=  1.82D-07    CP:  8.90D-01  7.57D-01  8.49D-01  1.21D+00  1.54D+00
                    CP:  1.63D+00  1.82D+00  1.83D+00  2.07D+00  2.54D+00
                    CP:  2.67D+00  3.00D+00  3.00D+00  2.95D+00  2.25D+00
 E= -347.326441028966     Delta-E=       -0.000000017472 Rises=F Damp=F
 DIIS: error= 9.49D-07 at cycle  16 NSaved=  16.
 NSaved=16 IEnMin=16 EnMin= -347.326441028966     IErMin=16 ErrMin= 9.49D-07
 ErrMax= 9.49D-07 EMaxC= 1.00D-01 BMatC= 1.46D-09 BMatP= 4.79D-09
 IDIUse=1 WtCom= 1.00D+00 WtEn= 0.00D+00
 Coeff-Com: -0.451D-05 0.490D-05 0.104D-03 0.126D-03-0.330D-03 0.859D-04
 Coeff-Com: -0.416D-03 0.392D-02-0.112D-02-0.341D-01-0.575D-02 0.167D+00
 Coeff-Com:  0.130D-01-0.373D+00-0.161D+00 0.139D+01
 Coeff:     -0.451D-05 0.490D-05 0.104D-03 0.126D-03-0.330D-03 0.859D-04
 Coeff:     -0.416D-03 0.392D-02-0.112D-02-0.341D-01-0.575D-02 0.167D+00
 Coeff:      0.130D-01-0.373D+00-0.161D+00 0.139D+01
 Gap=     0.271 Goal=   None    Shift=    0.000
 Gap=     0.164 Goal=   None    Shift=    0.000
 RMSDP=4.30D-07 MaxDP=1.78D-05 DE=-1.75D-08 OVMax= 1.26D-04

 Cycle  17  Pass 1  IDiag  1:
 RMSU=  1.73D-07    CP:  8.90D-01  7.57D-01  8.49D-01  1.21D+00  1.54D+00
                    CP:  1.63D+00  1.82D+00  1.83D+00  2.07D+00  2.55D+00
                    CP:  2.69D+00  3.00D+00  3.00D+00  3.00D+00  2.98D+00
                    CP:  1.49D+00
 E= -347.326441033014     Delta-E=       -0.000000004047 Rises=F Damp=F
 DIIS: error= 6.05D-07 at cycle  17 NSaved=  17.
 NSaved=17 IEnMin=17 EnMin= -347.326441033014     IErMin=17 ErrMin= 6.05D-07
 ErrMax= 6.05D-07 EMaxC= 1.00D-01 BMatC= 3.72D-10 BMatP= 1.46D-09
 IDIUse=1 WtCom= 1.00D+00 WtEn= 0.00D+00
 Coeff-Com: -0.870D-05 0.165D-04 0.601D-04 0.147D-03-0.340D-03-0.757D-03
 Coeff-Com: -0.293D-03 0.442D-02 0.535D-02-0.248D-01-0.212D-01 0.431D-01
 Coeff-Com:  0.125D+00-0.824D-01-0.328D+00 0.125D-01 0.127D+01
 Coeff:     -0.870D-05 0.165D-04 0.601D-04 0.147D-03-0.340D-03-0.757D-03
 Coeff:     -0.293D-03 0.442D-02 0.535D-02-0.248D-01-0.212D-01 0.431D-01
 Coeff:      0.125D+00-0.824D-01-0.328D+00 0.125D-01 0.127D+01
 Gap=     0.271 Goal=   None    Shift=    0.000
 Gap=     0.164 Goal=   None    Shift=    0.000
 RMSDP=2.52D-07 MaxDP=1.33D-05 DE=-4.05D-09 OVMax= 5.88D-05

 Cycle  18  Pass 1  IDiag  1:
 RMSU=  7.15D-08    CP:  8.90D-01  7.57D-01  8.49D-01  1.21D+00  1.54D+00
                    CP:  1.63D+00  1.82D+00  1.82D+00  2.06D+00  2.55D+00
                    CP:  2.71D+00  3.00D+00  3.00D+00  3.00D+00  3.00D+00
                    CP:  1.77D+00  1.56D+00
 E= -347.326441034103     Delta-E=       -0.000000001090 Rises=F Damp=F
 DIIS: error= 2.43D-07 at cycle  18 NSaved=  18.
 NSaved=18 IEnMin=18 EnMin= -347.326441034103     IErMin=18 ErrMin= 2.43D-07
 ErrMax= 2.43D-07 EMaxC= 1.00D-01 BMatC= 1.16D-10 BMatP= 3.72D-10
 IDIUse=1 WtCom= 1.00D+00 WtEn= 0.00D+00
 Coeff-Com:  0.710D-06-0.104D-05-0.540D-05-0.592D-05 0.408D-04-0.194D-03
 Coeff-Com: -0.175D-03-0.640D-03 0.108D-02 0.101D-01 0.112D-02-0.575D-01
 Coeff-Com:  0.137D-01 0.128D+00-0.103D-01-0.509D+00 0.315D+00 0.111D+01
 Coeff:      0.710D-06-0.104D-05-0.540D-05-0.592D-05 0.408D-04-0.194D-03
 Coeff:     -0.175D-03-0.640D-03 0.108D-02 0.101D-01 0.112D-02-0.575D-01
 Coeff:      0.137D-01 0.128D+00-0.103D-01-0.509D+00 0.315D+00 0.111D+01
 Gap=     0.271 Goal=   None    Shift=    0.000
 Gap=     0.164 Goal=   None    Shift=    0.000
 RMSDP=1.51D-07 MaxDP=1.22D-05 DE=-1.09D-09 OVMax= 2.99D-05

 Cycle  19  Pass 1  IDiag  1:
 RMSU=  1.71D-08    CP:  8.90D-01  7.57D-01  8.49D-01  1.21D+00  1.54D+00
                    CP:  1.63D+00  1.82D+00  1.82D+00  2.06D+00  2.55D+00
                    CP:  2.71D+00  3.00D+00  3.00D+00  3.00D+00  3.00D+00
                    CP:  1.92D+00  1.87D+00  1.55D+00
 E= -347.326441034351     Delta-E=       -0.000000000248 Rises=F Damp=F
 DIIS: error= 8.84D-08 at cycle  19 NSaved=  19.
 NSaved=19 IEnMin=19 EnMin= -347.326441034351     IErMin=19 ErrMin= 8.84D-08
 ErrMax= 8.84D-08 EMaxC= 1.00D-01 BMatC= 1.99D-11 BMatP= 1.16D-10
 IDIUse=1 WtCom= 1.00D+00 WtEn= 0.00D+00
 Coeff-Com:  0.204D-05-0.374D-05-0.664D-05-0.278D-04 0.616D-04 0.998D-04
 Coeff-Com: -0.145D-05-0.818D-03-0.746D-03 0.686D-02 0.481D-02-0.219D-01
 Coeff-Com: -0.214D-01 0.490D-01 0.630D-01-0.139D+00-0.184D+00 0.272D+00
 Coeff-Com:  0.972D+00
 Coeff:      0.204D-05-0.374D-05-0.664D-05-0.278D-04 0.616D-04 0.998D-04
 Coeff:     -0.145D-05-0.818D-03-0.746D-03 0.686D-02 0.481D-02-0.219D-01
 Coeff:     -0.214D-01 0.490D-01 0.630D-01-0.139D+00-0.184D+00 0.272D+00
 Coeff:      0.972D+00
 Gap=     0.271 Goal=   None    Shift=    0.000
 Gap=     0.164 Goal=   None    Shift=    0.000
 RMSDP=5.39D-08 MaxDP=4.37D-06 DE=-2.48D-10 OVMax= 1.18D-05

 Cycle  20  Pass 1  IDiag  1:
 Restarting incremental Fock formation.
 E= -347.326441034440     Delta-E=       -0.000000000089 Rises=F Damp=F
 DIIS: error= 3.39D-08 at cycle  20 NSaved=  20.
 NSaved=20 IEnMin=20 EnMin= -347.326441034440     IErMin=20 ErrMin= 3.39D-08
 ErrMax= 3.39D-08 EMaxC= 1.00D-01 BMatC= 1.32D-12 BMatP= 1.99D-11
 IDIUse=1 WtCom= 1.00D+00 WtEn= 0.00D+00
 Coeff-Com: -0.116D-06 0.150D-06 0.346D-05 0.625D-05 0.114D-05 0.212D-04
 Coeff-Com: -0.479D-04 0.371D-04-0.562D-04-0.747D-03 0.306D-03 0.541D-02
 Coeff-Com: -0.368D-02-0.139D-01 0.594D-02 0.631D-01-0.488D-01-0.153D+00
 Coeff-Com:  0.434D-01 0.110D+01
 Coeff:     -0.116D-06 0.150D-06 0.346D-05 0.625D-05 0.114D-05 0.212D-04
 Coeff:     -0.479D-04 0.371D-04-0.562D-04-0.747D-03 0.306D-03 0.541D-02
 Coeff:     -0.368D-02-0.139D-01 0.594D-02 0.631D-01-0.488D-01-0.153D+00
 Coeff:      0.434D-01 0.110D+01
 Gap=     0.271 Goal=   None    Shift=    0.000
 Gap=     0.164 Goal=   None    Shift=    0.000
 RMSDP=1.06D-08 MaxDP=6.21D-07 DE=-8.87D-11 OVMax= 1.87D-06

 Cycle  21  Pass 1  IDiag  1:
 RMSU=  5.83D-09    CP:  1.00D+00
 E= -347.326441034439     Delta-E=        0.000000000001 Rises=F Damp=F
 DIIS: error= 1.36D-08 at cycle  21 NSaved=  20.
 NSaved=20 IEnMin=19 EnMin= -347.326441034440     IErMin=20 ErrMin= 1.36D-08
 ErrMax= 1.36D-08 EMaxC= 1.00D-01 BMatC= 1.22D-13 BMatP= 1.32D-12
 IDIUse=1 WtCom= 1.00D+00 WtEn= 0.00D+00
 Coeff-Com: -0.405D-07-0.837D-06-0.113D-05-0.212D-05 0.256D-05 0.175D-04
 Coeff-Com:  0.175D-04-0.499D-04-0.357D-03-0.160D-03 0.139D-02 0.891D-03
 Coeff-Com: -0.290D-02-0.361D-02 0.847D-02 0.133D-01-0.147D-01-0.549D-01
 Coeff-Com: -0.340D-01 0.109D+01
 Coeff:     -0.405D-07-0.837D-06-0.113D-05-0.212D-05 0.256D-05 0.175D-04
 Coeff:      0.175D-04-0.499D-04-0.357D-03-0.160D-03 0.139D-02 0.891D-03
 Coeff:     -0.290D-02-0.361D-02 0.847D-02 0.133D-01-0.147D-01-0.549D-01
 Coeff:     -0.340D-01 0.109D+01
 Gap=     0.271 Goal=   None    Shift=    0.000
 Gap=     0.164 Goal=   None    Shift=    0.000
 RMSDP=2.84D-09 MaxDP=2.57D-07 DE= 1.48D-12 OVMax= 4.46D-07

 SCF Done:  E(UM062X) =  -347.326441034     A.U. after   21 cycles
             Convg  =    0.2839D-08             -V/T =  2.0042
 <Sx>= 0.0000 <Sy>= 0.0000 <Sz>= 0.5000 <S**2>= 0.7565 S= 0.5033
 <L.S>= 0.000000000000E+00
 KE= 3.458674558215D+02 PE=-1.410175478741D+03 EE= 4.177247519712D+02
 Annihilation of the first spin contaminant:
 S**2 before annihilation     0.7565,   after     0.7500
 Leave Link  502 at Tue Jun 12 16:06:28 2018, MaxMem=  671088640 cpu:    3261.5
 (Enter /shared/apps/gaussian/G09_LINUX_LINDA/g09/l601.exe)
 Copying SCF densities to generalized density rwf, IOpCl= 1 IROHF=0.

 **********************************************************************

            Population analysis using the SCF density.

 **********************************************************************

 Orbital symmetries:
 Alpha Orbitals:
       Occupied  (A) (A) (A) (A) (A) (A) (A) (A) (A) (A) (A) (A)
                 (A) (A) (A) (A) (A) (A) (A) (A) (A) (A) (A) (A)
                 (A) (A) (A) (A) (A)
       Virtual   (A) (A) (A) (A) (A) (A) (A) (A) (A) (A) (A) (A)
                 (A) (A) (A) (A) (A) (A) (A) (A) (A) (A) (A) (A)
                 (A) (A) (A) (A) (A) (A) (A) (A) (A) (A) (A) (A)
                 (A) (A) (A) (A) (A) (A) (A) (A) (A) (A) (A) (A)
                 (A) (A) (A) (A) (A) (A) (A) (A) (A) (A) (A) (A)
                 (A) (A) (A) (A) (A) (A) (A) (A) (A) (A) (A) (A)
                 (A) (A) (A) (A) (A) (A) (A) (A) (A) (A) (A) (A)
                 (A) (A) (A) (A) (A) (A) (A) (A) (A) (A) (A) (A)
                 (A) (A) (A) (A) (A) (A) (A) (A) (A) (A) (A) (A)
                 (A) (A) (A) (A) (A) (A) (A) (A) (A) (A) (A) (A)
                 (A) (A) (A) (A) (A) (A) (A) (A) (A) (A) (A) (A)
                 (A) (A) (A) (A) (A) (A) (A) (A) (A) (A) (A) (A)
                 (A) (A) (A) (A) (A) (A) (A) (A) (A) (A) (A) (A)
                 (A) (A) (A) (A) (A) (A) (A) (A) (A) (A) (A) (A)
                 (A) (A) (A) (A) (A) (A) (A) (A) (A) (A) (A) (A)
                 (A) (A) (A) (A) (A) (A) (A) (A) (A) (A) (A) (A)
                 (A) (A) (A) (A) (A) (A) (A) (A) (A) (A) (A) (A)
                 (A) (A) (A) (A) (A) (A) (A) (A) (A) (A) (A) (A)
                 (A) (A) (A) (A) (A) (A) (A) (A) (A) (A) (A) (A)
                 (A) (A) (A) (A) (A) (A) (A) (A) (A) (A) (A) (A)
                 (A) (A) (A) (A) (A) (A) (A) (A) (A) (A) (A) (A)
                 (A) (A) (A) (A) (A) (A) (A) (A) (A) (A) (A) (A)
                 (A) (A) (A) (A) (A) (A) (A) (A) (A) (A) (A) (A)
                 (A) (A) (A) (A) (A) (A) (A) (A) (A) (A) (A) (A)
                 (A) (A) (A) (A) (A) (A) (A) (A) (A) (A) (A) (A)
                 (A) (A) (A) (A) (A) (A) (A) (A)
 Beta  Orbitals:
       Occupied  (A) (A) (A) (A) (A) (A) (A) (A) (A) (A) (A) (A)
                 (A) (A) (A) (A) (A) (A) (A) (A) (A) (A) (A) (A)
                 (A) (A) (A) (A)
       Virtual   (A) (A) (A) (A) (A) (A) (A) (A) (A) (A) (A) (A)
                 (A) (A) (A) (A) (A) (A) (A) (A) (A) (A) (A) (A)
                 (A) (A) (A) (A) (A) (A) (A) (A) (A) (A) (A) (A)
                 (A) (A) (A) (A) (A) (A) (A) (A) (A) (A) (A) (A)
                 (A) (A) (A) (A) (A) (A) (A) (A) (A) (A) (A) (A)
                 (A) (A) (A) (A) (A) (A) (A) (A) (A) (A) (A) (A)
                 (A) (A) (A) (A) (A) (A) (A) (A) (A) (A) (A) (A)
                 (A) (A) (A) (A) (A) (A) (A) (A) (A) (A) (A) (A)
                 (A) (A) (A) (A) (A) (A) (A) (A) (A) (A) (A) (A)
                 (A) (A) (A) (A) (A) (A) (A) (A) (A) (A) (A) (A)
                 (A) (A) (A) (A) (A) (A) (A) (A) (A) (A) (A) (A)
                 (A) (A) (A) (A) (A) (A) (A) (A) (A) (A) (A) (A)
                 (A) (A) (A) (A) (A) (A) (A) (A) (A) (A) (A) (A)
                 (A) (A) (A) (A) (A) (A) (A) (A) (A) (A) (A) (A)
                 (A) (A) (A) (A) (A) (A) (A) (A) (A) (A) (A) (A)
                 (A) (A) (A) (A) (A) (A) (A) (A) (A) (A) (A) (A)
                 (A) (A) (A) (A) (A) (A) (A) (A) (A) (A) (A) (A)
                 (A) (A) (A) (A) (A) (A) (A) (A) (A) (A) (A) (A)
                 (A) (A) (A) (A) (A) (A) (A) (A) (A) (A) (A) (A)
                 (A) (A) (A) (A) (A) (A) (A) (A) (A) (A) (A) (A)
                 (A) (A) (A) (A) (A) (A) (A) (A) (A) (A) (A) (A)
                 (A) (A) (A) (A) (A) (A) (A) (A) (A) (A) (A) (A)
                 (A) (A) (A) (A) (A) (A) (A) (A) (A) (A) (A) (A)
                 (A) (A) (A) (A) (A) (A) (A) (A) (A) (A) (A) (A)
                 (A) (A) (A) (A) (A) (A) (A) (A) (A) (A) (A) (A)
                 (A) (A) (A) (A) (A) (A) (A) (A) (A)
 The electronic state is 2-A.
 Alpha  occ. eigenvalues --  -19.75938 -19.72044 -10.53415 -10.53073 -10.52804
 Alpha  occ. eigenvalues --  -10.51973 -10.51806  -1.35116  -1.02167  -0.90463
 Alpha  occ. eigenvalues --   -0.80759  -0.77759  -0.71446  -0.68068  -0.61649
 Alpha  occ. eigenvalues --   -0.60210  -0.57236  -0.51886  -0.49571  -0.48733
 Alpha  occ. eigenvalues --   -0.45484  -0.44238  -0.42733  -0.41539  -0.40876
 Alpha  occ. eigenvalues --   -0.39752  -0.38434  -0.35335  -0.26601
 Alpha virt. eigenvalues --    0.00525   0.02475   0.03321   0.03609   0.04397
 Alpha virt. eigenvalues --    0.05488   0.05608   0.05948   0.07118   0.08251
 Alpha virt. eigenvalues --    0.08868   0.09391   0.10217   0.11748   0.12325
 Alpha virt. eigenvalues --    0.12564   0.14085   0.14577   0.15385   0.15934
 Alpha virt. eigenvalues --    0.17929   0.18190   0.18677   0.20217   0.20389
 Alpha virt. eigenvalues --    0.21003   0.21360   0.21987   0.22740   0.23659
 Alpha virt. eigenvalues --    0.24432   0.24730   0.26269   0.27467   0.28246
 Alpha virt. eigenvalues --    0.29406   0.29806   0.30399   0.32234   0.33206
 Alpha virt. eigenvalues --    0.35561   0.37743   0.38433   0.39680   0.41646
 Alpha virt. eigenvalues --    0.42395   0.44488   0.47499   0.47885   0.48885
 Alpha virt. eigenvalues --    0.49750   0.51561   0.52185   0.54209   0.55899
 Alpha virt. eigenvalues --    0.56411   0.57566   0.57760   0.58695   0.59660
 Alpha virt. eigenvalues --    0.60541   0.61493   0.63360   0.63907   0.65218
 Alpha virt. eigenvalues --    0.66681   0.66943   0.68805   0.69350   0.69583
 Alpha virt. eigenvalues --    0.70631   0.72197   0.72505   0.75492   0.76978
 Alpha virt. eigenvalues --    0.79977   0.81027   0.82266   0.83181   0.84714
 Alpha virt. eigenvalues --    0.87761   0.89058   0.91027   0.91645   0.92364
 Alpha virt. eigenvalues --    0.94699   0.97042   0.97965   0.98657   1.00934
 Alpha virt. eigenvalues --    1.03735   1.04724   1.05220   1.06529   1.08604
 Alpha virt. eigenvalues --    1.10737   1.12138   1.12833   1.13670   1.14418
 Alpha virt. eigenvalues --    1.15775   1.17602   1.18471   1.19815   1.20505
 Alpha virt. eigenvalues --    1.21879   1.24164   1.25508   1.28518   1.30325
 Alpha virt. eigenvalues --    1.31171   1.33318   1.34787   1.35593   1.35734
 Alpha virt. eigenvalues --    1.37427   1.37668   1.39496   1.39637   1.41352
 Alpha virt. eigenvalues --    1.42403   1.43140   1.44571   1.46371   1.46802
 Alpha virt. eigenvalues --    1.48282   1.49439   1.50764   1.52430   1.54457
 Alpha virt. eigenvalues --    1.57494   1.57975   1.59073   1.60133   1.60517
 Alpha virt. eigenvalues --    1.61466   1.64197   1.65906   1.67321   1.69502
 Alpha virt. eigenvalues --    1.72402   1.74018   1.83204   1.83496   1.91307
 Alpha virt. eigenvalues --    1.92046   2.03134   2.17383   2.24520   2.29907
 Alpha virt. eigenvalues --    2.36274   2.38574   2.44354   2.51606   2.52697
 Alpha virt. eigenvalues --    2.55745   2.58293   2.60403   2.61793   2.67700
 Alpha virt. eigenvalues --    2.71254   2.73794   2.76755   2.81777   2.83479
 Alpha virt. eigenvalues --    2.85029   2.87405   2.89567   2.92354   2.92838
 Alpha virt. eigenvalues --    2.93649   2.94841   2.95862   2.98428   2.99342
 Alpha virt. eigenvalues --    3.00605   3.04181   3.06218   3.07353   3.10367
 Alpha virt. eigenvalues --    3.14000   3.14823   3.16551   3.18645   3.19848
 Alpha virt. eigenvalues --    3.20131   3.22323   3.23550   3.24445   3.25110
 Alpha virt. eigenvalues --    3.26394   3.31072   3.31896   3.33895   3.37359
 Alpha virt. eigenvalues --    3.40513   3.43712   3.45586   3.45960   3.48267
 Alpha virt. eigenvalues --    3.50133   3.51042   3.53613   3.54322   3.57348
 Alpha virt. eigenvalues --    3.61012   3.62148   3.64503   3.66161   3.69518
 Alpha virt. eigenvalues --    3.70360   3.71636   3.73408   3.74684   3.76781
 Alpha virt. eigenvalues --    3.81329   3.83611   3.84546   3.85143   3.87938
 Alpha virt. eigenvalues --    3.91784   3.93293   3.94568   3.96805   3.98476
 Alpha virt. eigenvalues --    4.00787   4.02743   4.04889   4.07948   4.08299
 Alpha virt. eigenvalues --    4.10946   4.12365   4.14248   4.15046   4.19129
 Alpha virt. eigenvalues --    4.21567   4.22393   4.24669   4.26678   4.29466
 Alpha virt. eigenvalues --    4.31935   4.34943   4.36028   4.37237   4.39925
 Alpha virt. eigenvalues --    4.42089   4.42841   4.45965   4.48137   4.49028
 Alpha virt. eigenvalues --    4.53279   4.56051   4.58678   4.59445   4.63130
 Alpha virt. eigenvalues --    4.64636   4.66408   4.67815   4.71073   4.74821
 Alpha virt. eigenvalues --    4.77566   4.80747   4.91091   4.96165   4.97903
 Alpha virt. eigenvalues --    4.98844   5.01445   5.08242   5.13986   5.14738
 Alpha virt. eigenvalues --    5.18500   5.21229   5.25447   5.35056   5.37696
 Alpha virt. eigenvalues --    5.43561   5.49433   5.50316   5.51090   5.52060
 Alpha virt. eigenvalues --    5.53113   5.54037   5.57596   5.58711   5.68657
 Alpha virt. eigenvalues --    5.71607   5.83344   6.33339   6.52598   6.65952
 Alpha virt. eigenvalues --    6.72645   6.84153   6.86233   6.96145   6.96930
 Alpha virt. eigenvalues --    7.15855   7.27849   7.38892   7.51729   7.88557
 Alpha virt. eigenvalues --    8.05895  24.05193  24.33110  24.38718  24.40636
 Alpha virt. eigenvalues --   24.85602  49.93620  50.01895
  Beta  occ. eigenvalues --  -19.75245 -19.70730 -10.53392 -10.53076 -10.52807
  Beta  occ. eigenvalues --  -10.51861 -10.51812  -1.32088  -0.97853  -0.90365
  Beta  occ. eigenvalues --   -0.80477  -0.77744  -0.70612  -0.66861  -0.59737
  Beta  occ. eigenvalues --   -0.57044  -0.51814  -0.51458  -0.49420  -0.48636
  Beta  occ. eigenvalues --   -0.45404  -0.44033  -0.42262  -0.40306  -0.39321
  Beta  occ. eigenvalues --   -0.37826  -0.35554  -0.26568
  Beta virt. eigenvalues --   -0.10157   0.00744   0.02616   0.03361   0.03557
  Beta virt. eigenvalues --    0.04572   0.05469   0.05606   0.06031   0.07174
  Beta virt. eigenvalues --    0.08349   0.08890   0.09667   0.10071   0.11967
  Beta virt. eigenvalues --    0.12532   0.12760   0.14080   0.14676   0.15690
  Beta virt. eigenvalues --    0.15917   0.18170   0.18352   0.19006   0.20403
  Beta virt. eigenvalues --    0.20740   0.21216   0.21344   0.22167   0.22794
  Beta virt. eigenvalues --    0.23699   0.24477   0.24928   0.26390   0.27554
  Beta virt. eigenvalues --    0.28340   0.29700   0.29881   0.30617   0.32055
  Beta virt. eigenvalues --    0.33257   0.35573   0.37612   0.38429   0.39675
  Beta virt. eigenvalues --    0.41644   0.42809   0.44384   0.47472   0.47893
  Beta virt. eigenvalues --    0.49059   0.49793   0.51678   0.52253   0.54456
  Beta virt. eigenvalues --    0.55934   0.56481   0.57592   0.57831   0.58702
  Beta virt. eigenvalues --    0.59714   0.60547   0.61486   0.63336   0.63813
  Beta virt. eigenvalues --    0.65285   0.66755   0.66942   0.68864   0.69371
  Beta virt. eigenvalues --    0.69641   0.70826   0.72258   0.72558   0.75534
  Beta virt. eigenvalues --    0.77030   0.79967   0.81133   0.82316   0.83229
  Beta virt. eigenvalues --    0.84674   0.87835   0.89142   0.91072   0.91688
  Beta virt. eigenvalues --    0.92534   0.94957   0.97065   0.97988   0.99126
  Beta virt. eigenvalues --    1.00971   1.04331   1.05101   1.06452   1.06849
  Beta virt. eigenvalues --    1.08719   1.10782   1.12305   1.13109   1.13816
  Beta virt. eigenvalues --    1.15440   1.16621   1.18026   1.18786   1.19855
  Beta virt. eigenvalues --    1.20549   1.22181   1.24462   1.25597   1.28609
  Beta virt. eigenvalues --    1.30668   1.31264   1.33381   1.35048   1.35645
  Beta virt. eigenvalues --    1.35816   1.37654   1.38133   1.39567   1.39947
  Beta virt. eigenvalues --    1.41538   1.42588   1.43245   1.44814   1.46485
  Beta virt. eigenvalues --    1.47504   1.48312   1.49699   1.50935   1.52779
  Beta virt. eigenvalues --    1.54590   1.57729   1.58425   1.59718   1.60429
  Beta virt. eigenvalues --    1.60651   1.61609   1.64246   1.65966   1.67541
  Beta virt. eigenvalues --    1.69616   1.72525   1.74087   1.84420   1.85135
  Beta virt. eigenvalues --    1.91539   1.92821   2.03201   2.17654   2.25511
  Beta virt. eigenvalues --    2.29990   2.36649   2.39296   2.44394   2.51638
  Beta virt. eigenvalues --    2.52679   2.55872   2.58379   2.60630   2.62186
  Beta virt. eigenvalues --    2.67744   2.71432   2.73859   2.77099   2.81884
  Beta virt. eigenvalues --    2.83399   2.85096   2.87548   2.89508   2.92472
  Beta virt. eigenvalues --    2.92961   2.93724   2.94529   2.95922   2.98521
  Beta virt. eigenvalues --    2.99402   3.00639   3.04215   3.06322   3.07536
  Beta virt. eigenvalues --    3.10425   3.13753   3.14903   3.16640   3.18723
  Beta virt. eigenvalues --    3.19942   3.20248   3.22320   3.23636   3.24422
  Beta virt. eigenvalues --    3.25113   3.26469   3.31229   3.31977   3.34039
  Beta virt. eigenvalues --    3.37479   3.40597   3.43662   3.45672   3.46051
  Beta virt. eigenvalues --    3.48473   3.50315   3.51171   3.53750   3.54580
  Beta virt. eigenvalues --    3.57824   3.61188   3.62272   3.64767   3.66665
  Beta virt. eigenvalues --    3.69767   3.70566   3.71743   3.73623   3.74792
  Beta virt. eigenvalues --    3.77058   3.81504   3.83736   3.84637   3.85267
  Beta virt. eigenvalues --    3.88026   3.91823   3.93311   3.94818   3.96852
  Beta virt. eigenvalues --    3.98511   4.00902   4.02711   4.04911   4.07650
  Beta virt. eigenvalues --    4.08127   4.10776   4.12345   4.14294   4.15049
  Beta virt. eigenvalues --    4.19293   4.21602   4.22451   4.24779   4.26788
  Beta virt. eigenvalues --    4.29558   4.31930   4.35083   4.36100   4.37268
  Beta virt. eigenvalues --    4.39934   4.42167   4.43020   4.46081   4.48180
  Beta virt. eigenvalues --    4.49196   4.53413   4.56418   4.59350   4.59904
  Beta virt. eigenvalues --    4.64453   4.64703   4.66679   4.68310   4.71212
  Beta virt. eigenvalues --    4.75088   4.78164   4.81210   4.91526   4.96368
  Beta virt. eigenvalues --    4.99976   5.01574   5.04132   5.08504   5.14942
  Beta virt. eigenvalues --    5.18273   5.19479   5.22339   5.25942   5.36216
  Beta virt. eigenvalues --    5.37918   5.44676   5.49509   5.50387   5.51225
  Beta virt. eigenvalues --    5.52494   5.53601   5.54011   5.57652   5.58883
  Beta virt. eigenvalues --    5.68837   5.71702   5.83522   6.33838   6.53914
  Beta virt. eigenvalues --    6.73327   6.81021   6.86053   6.88621   6.97932
  Beta virt. eigenvalues --    7.00600   7.17373   7.28858   7.44305   7.52323
  Beta virt. eigenvalues --    7.88026   8.08572  24.05216  24.33225  24.38723
  Beta virt. eigenvalues --   24.40662  24.85646  49.93141  50.01336
          Condensed to atoms (all electrons):
              1          2          3          4          5          6
     1  O    8.526462   0.072225  -0.090324   0.066084   0.000582   0.008741
     2  O    0.072225   7.758735   0.008912  -0.015745   0.052827  -0.016158
     3  C   -0.090324   0.008912   5.824855   0.121612  -0.019204  -0.191933
     4  C    0.066084  -0.015745   0.121612   5.870628   0.115226   0.074580
     5  C    0.000582   0.052827  -0.019204   0.115226   5.840418  -0.258813
     6  C    0.008741  -0.016158  -0.191933   0.074580  -0.258813   5.828972
     7  C    0.000228   0.002457   0.048065  -0.337798  -0.163079   0.087430
     8  H   -0.056558   0.243687   0.005042  -0.002664  -0.000721   0.000556
     9  H   -0.001244   0.000292   0.356726  -0.015629  -0.000781  -0.011454
    10  H   -0.312631   0.043510   0.053437  -0.089838   0.313258   0.000839
    11  H    0.005401  -0.001399  -0.060472   0.045244   0.382587   0.008854
    12  H    0.007002  -0.001374  -0.060175   0.001610   0.402801   0.000528
    13  H    0.001051  -0.000287  -0.017475  -0.045531   0.000826   0.423607
    14  H   -0.007678   0.002968   0.003843  -0.032832   0.010424   0.370922
    15  H    0.000128  -0.000003  -0.002202  -0.081454   0.001811   0.438321
    16  H    0.000042  -0.000013  -0.039431  -0.020710   0.002180   0.000981
    17  H   -0.000026  -0.000003  -0.009272  -0.079104   0.002180   0.030428
    18  H   -0.000185   0.000140  -0.015630  -0.014035   0.002775  -0.008283
              7          8          9         10         11         12
     1  O    0.000228  -0.056558  -0.001244  -0.312631   0.005401   0.007002
     2  O    0.002457   0.243687   0.000292   0.043510  -0.001399  -0.001374
     3  C    0.048065   0.005042   0.356726   0.053437  -0.060472  -0.060175
     4  C   -0.337798  -0.002664  -0.015629  -0.089838   0.045244   0.001610
     5  C   -0.163079  -0.000721  -0.000781   0.313258   0.382587   0.402801
     6  C    0.087430   0.000556  -0.011454   0.000839   0.008854   0.000528
     7  C    5.734402  -0.000462   0.032195   0.003452   0.005378   0.011557
     8  H   -0.000462   0.533430  -0.000023  -0.003997  -0.000067   0.000036
     9  H    0.032195  -0.000023   0.495342   0.003687  -0.010377   0.003532
    10  H    0.003452  -0.003997   0.003687   0.657648  -0.021296  -0.036959
    11  H    0.005378  -0.000067  -0.010377  -0.021296   0.531371  -0.021555
    12  H    0.011557   0.000036   0.003532  -0.036959  -0.021555   0.529473
    13  H    0.006408   0.000011  -0.000142  -0.004926   0.000027   0.003150
    14  H   -0.012801   0.000647  -0.000056   0.010796  -0.000041  -0.003751
    15  H    0.024241  -0.000046  -0.000101   0.000316  -0.000011   0.000007
    16  H    0.421293   0.000001  -0.000991  -0.000164  -0.000016   0.000206
    17  H    0.425205  -0.000001   0.000267   0.000035   0.000006  -0.000008
    18  H    0.395582  -0.000016  -0.000880   0.000260  -0.000011  -0.000123
             13         14         15         16         17         18
     1  O    0.001051  -0.007678   0.000128   0.000042  -0.000026  -0.000185
     2  O   -0.000287   0.002968  -0.000003  -0.000013  -0.000003   0.000140
     3  C   -0.017475   0.003843  -0.002202  -0.039431  -0.009272  -0.015630
     4  C   -0.045531  -0.032832  -0.081454  -0.020710  -0.079104  -0.014035
     5  C    0.000826   0.010424   0.001811   0.002180   0.002180   0.002775
     6  C    0.423607   0.370922   0.438321   0.000981   0.030428  -0.008283
     7  C    0.006408  -0.012801   0.024241   0.421293   0.425205   0.395582
     8  H    0.000011   0.000647  -0.000046   0.000001  -0.000001  -0.000016
     9  H   -0.000142  -0.000056  -0.000101  -0.000991   0.000267  -0.000880
    10  H   -0.004926   0.010796   0.000316  -0.000164   0.000035   0.000260
    11  H    0.000027  -0.000041  -0.000011  -0.000016   0.000006  -0.000011
    12  H    0.003150  -0.003751   0.000007   0.000206  -0.000008  -0.000123
    13  H    0.526891  -0.036059  -0.024696   0.000112   0.000305  -0.000350
    14  H   -0.036059   0.569049  -0.028015  -0.000486   0.000324   0.000478
    15  H   -0.024696  -0.028015   0.534378   0.000417   0.000185   0.000613
    16  H    0.000112  -0.000486   0.000417   0.542728  -0.023761  -0.035744
    17  H    0.000305   0.000324   0.000185  -0.023761   0.550697  -0.025856
    18  H   -0.000350   0.000478   0.000613  -0.035744  -0.025856   0.548987
 Mulliken atomic charges:
              1
     1  O   -0.219300
     2  O   -0.150771
     3  C    0.083625
     4  C    0.440353
     5  C   -0.685297
     6  C   -0.788120
     7  C   -0.683752
     8  H    0.281145
     9  H    0.149637
    10  H    0.382572
    11  H    0.136375
    12  H    0.164042
    13  H    0.167078
    14  H    0.152268
    15  H    0.136112
    16  H    0.153358
    17  H    0.128398
    18  H    0.152278
 Sum of Mulliken atomic charges =   0.00000
 Mulliken charges with hydrogens summed into heavy atoms:
              1
     1  O    0.163272
     2  O    0.130374
     3  C    0.233262
     4  C    0.440353
     5  C   -0.384880
     6  C   -0.332662
     7  C   -0.249719
 Sum of Mulliken charges with hydrogens summed into heavy atoms =   0.00000
          Atomic-Atomic Spin Densities.
              1          2          3          4          5          6
     1  O    0.815166  -0.162653   0.017975  -0.009336  -0.031081   0.008678
     2  O   -0.162653   0.398734  -0.005056  -0.002327   0.010861   0.001554
     3  C    0.017975  -0.005056  -0.076367   0.042686  -0.004039  -0.001460
     4  C   -0.009336  -0.002327   0.042686   0.025091  -0.007200   0.000431
     5  C   -0.031081   0.010861  -0.004039  -0.007200   0.148493  -0.008882
     6  C    0.008678   0.001554  -0.001460   0.000431  -0.008882  -0.000702
     7  C   -0.006720   0.000103   0.008419  -0.016299  -0.003022   0.002124
     8  H    0.001356   0.002083  -0.000198  -0.000379   0.000595  -0.000100
     9  H   -0.000385   0.000086   0.001097   0.000225  -0.002572  -0.000120
    10  H   -0.024081   0.017408  -0.016984   0.020964   0.026410  -0.008268
    11  H    0.000286  -0.000077  -0.000633  -0.002048   0.002368   0.000434
    12  H    0.002488  -0.000598   0.011667  -0.005282  -0.009570   0.000505
    13  H    0.000435  -0.000075   0.002897  -0.001735  -0.001422   0.000155
    14  H   -0.003417  -0.000233  -0.002856   0.001253   0.002444  -0.002275
    15  H   -0.000121   0.000043   0.000330  -0.002269  -0.000046   0.001495
    16  H    0.000038  -0.000005   0.002150  -0.003647  -0.000094   0.000029
    17  H    0.000004  -0.000002  -0.000037   0.000205  -0.000029   0.000013
    18  H   -0.000120   0.000050  -0.002970   0.001033   0.000303   0.000624
              7          8          9         10         11         12
     1  O   -0.006720   0.001356  -0.000385  -0.024081   0.000286   0.002488
     2  O    0.000103   0.002083   0.000086   0.017408  -0.000077  -0.000598
     3  C    0.008419  -0.000198   0.001097  -0.016984  -0.000633   0.011667
     4  C   -0.016299  -0.000379   0.000225   0.020964  -0.002048  -0.005282
     5  C   -0.003022   0.000595  -0.002572   0.026410   0.002368  -0.009570
     6  C    0.002124  -0.000100  -0.000120  -0.008268   0.000434   0.000505
     7  C    0.002825  -0.000007   0.001707   0.006484  -0.000530  -0.000376
     8  H   -0.000007  -0.015105   0.000002   0.000748  -0.000005  -0.000004
     9  H    0.001707   0.000002   0.001984   0.000003   0.000245  -0.000230
    10  H    0.006484   0.000748   0.000003  -0.019086   0.002160  -0.005337
    11  H   -0.000530  -0.000005   0.000245   0.002160  -0.008147   0.000979
    12  H   -0.000376  -0.000004  -0.000230  -0.005337   0.000979   0.008057
    13  H   -0.000908  -0.000005  -0.000032  -0.000851   0.000003   0.000823
    14  H    0.000650   0.000136   0.000032   0.003220  -0.000005  -0.000396
    15  H    0.000885   0.000002   0.000010   0.000101  -0.000003  -0.000028
    16  H    0.001077   0.000000  -0.000102  -0.000023  -0.000002   0.000027
    17  H   -0.000175   0.000000  -0.000008  -0.000004   0.000000   0.000001
    18  H    0.001165   0.000003   0.000049  -0.000002   0.000005  -0.000009
             13         14         15         16         17         18
     1  O    0.000435  -0.003417  -0.000121   0.000038   0.000004  -0.000120
     2  O   -0.000075  -0.000233   0.000043  -0.000005  -0.000002   0.000050
     3  C    0.002897  -0.002856   0.000330   0.002150  -0.000037  -0.002970
     4  C   -0.001735   0.001253  -0.002269  -0.003647   0.000205   0.001033
     5  C   -0.001422   0.002444  -0.000046  -0.000094  -0.000029   0.000303
     6  C    0.000155  -0.002275   0.001495   0.000029   0.000013   0.000624
     7  C   -0.000908   0.000650   0.000885   0.001077  -0.000175   0.001165
     8  H   -0.000005   0.000136   0.000002   0.000000   0.000000   0.000003
     9  H   -0.000032   0.000032   0.000010  -0.000102  -0.000008   0.000049
    10  H   -0.000851   0.003220   0.000101  -0.000023  -0.000004  -0.000002
    11  H    0.000003  -0.000005  -0.000003  -0.000002   0.000000   0.000005
    12  H    0.000823  -0.000396  -0.000028   0.000027   0.000001  -0.000009
    13  H    0.004182  -0.001117  -0.000491   0.000057   0.000010  -0.000023
    14  H   -0.001117   0.004150   0.000386  -0.000037  -0.000005   0.000046
    15  H   -0.000491   0.000386  -0.000371  -0.000046   0.000001   0.000035
    16  H    0.000057  -0.000037  -0.000046   0.002486   0.000016  -0.000515
    17  H    0.000010  -0.000005   0.000001   0.000016   0.000126  -0.000052
    18  H   -0.000023   0.000046   0.000035  -0.000515  -0.000052   0.001849
 Mulliken atomic spin densities:
              1
     1  O    0.608512
     2  O    0.259894
     3  C   -0.023379
     4  C    0.041365
     5  C    0.123516
     6  C   -0.005766
     7  C   -0.002600
     8  H   -0.010878
     9  H    0.001992
    10  H    0.002862
    11  H   -0.004970
    12  H    0.002716
    13  H    0.001902
    14  H    0.001976
    15  H   -0.000086
    16  H    0.001408
    17  H    0.000065
    18  H    0.001471
 Sum of Mulliken atomic spin densities =   1.00000
 Electronic spatial extent (au):  <R**2>=           1201.8392
 Charge=              0.0000 electrons
 Dipole moment (field-independent basis, Debye):
    X=              0.0703    Y=             -2.2781    Z=             -0.4174  Tot=              2.3171
 Quadrupole moment (field-independent basis, Debye-Ang):
   XX=            -47.6249   YY=            -40.9572   ZZ=            -44.9832
   XY=              4.1148   XZ=              0.8515   YZ=              0.4923
 Traceless Quadrupole moment (field-independent basis, Debye-Ang):
   XX=             -3.1031   YY=              3.5645   ZZ=             -0.4614
   XY=              4.1148   XZ=              0.8515   YZ=              0.4923
 Octapole moment (field-independent basis, Debye-Ang**2):
  XXX=            -13.9611  YYY=            -15.9868  ZZZ=             -2.4787  XYY=            -18.9212
  XXY=            -13.8626  XXZ=             -1.1977  XZZ=             -7.1555  YZZ=             -0.8988
  YYZ=             -4.8340  XYZ=             -3.7338
 Hexadecapole moment (field-independent basis, Debye-Ang**3):
 XXXX=          -1071.5790 YYYY=           -312.5459 ZZZZ=           -214.2703 XXXY=             36.0289
 XXXZ=              5.1816 YYYX=             33.2552 YYYZ=              2.2907 ZZZX=              7.7198
 ZZZY=              6.2281 XXYY=           -198.0222 XXZZ=           -209.2436 YYZZ=            -86.9208
 XXYZ=              1.0614 YYXZ=             11.6076 ZZXY=              8.7802
 N-N= 2.992568299134D+02 E-N=-2.105767269298D+03  KE= 5.172097561992D+02
                          Isotropic Fermi Contact Couplings
        Atom                 a.u.       MegaHertz       Gauss      10(-4) cm-1
     1  O(17)              0.11551     -70.01892     -24.98449     -23.35580
     2  O(17)              0.05494     -33.30354     -11.88353     -11.10887
     3  C(13)             -0.00640      -7.19435      -2.56712      -2.39978
     4  C(13)              0.00448       5.04181       1.79904       1.68177
     5  C(13)              0.04690      52.72799      18.81466      17.58816
     6  C(13)             -0.00172      -1.93050      -0.68885      -0.64395
     7  C(13)             -0.00138      -1.55626      -0.55531      -0.51911
     8  H(1)              -0.00592     -26.44815      -9.43736      -8.82215
     9  H(1)               0.00087       3.90649       1.39393       1.30306
    10  H(1)              -0.00771     -34.45272     -12.29359     -11.49219
    11  H(1)              -0.00141      -6.32129      -2.25559      -2.10856
    12  H(1)               0.00339      15.16160       5.41004       5.05737
    13  H(1)               0.00102       4.55472       1.62524       1.51929
    14  H(1)               0.00043       1.90960       0.68139       0.63697
    15  H(1)               0.00003       0.14110       0.05035       0.04706
    16  H(1)               0.00089       3.96506       1.41483       1.32260
    17  H(1)              -0.00001      -0.02884      -0.01029      -0.00962
    18  H(1)               0.00088       3.91557       1.39717       1.30609
 --------------------------------------------------------
       Center         ----  Spin Dipole Couplings  ----
                      3XX-RR        3YY-RR        3ZZ-RR
 --------------------------------------------------------
     1   Atom       -0.401474     -1.040865      1.442339
     2   Atom       -0.048133     -0.405046      0.453179
     3   Atom        0.006417     -0.002457     -0.003960
     4   Atom        0.010508     -0.007019     -0.003489
     5   Atom        0.052747      0.023201     -0.075949
     6   Atom        0.002452     -0.001538     -0.000914
     7   Atom        0.002289     -0.001098     -0.001191
     8   Atom       -0.017635      0.049868     -0.032233
     9   Atom        0.002601     -0.001469     -0.001132
    10   Atom        0.024790      0.012734     -0.037525
    11   Atom       -0.003835      0.009735     -0.005900
    12   Atom       -0.003382     -0.004295      0.007677
    13   Atom        0.001873     -0.001934      0.000061
    14   Atom        0.004634     -0.001687     -0.002947
    15   Atom        0.001332     -0.000446     -0.000887
    16   Atom        0.001787     -0.000898     -0.000889
    17   Atom        0.001504     -0.000444     -0.001059
    18   Atom        0.001427     -0.001176     -0.000251
 --------------------------------------------------------
                        XY            XZ            YZ
 --------------------------------------------------------
     1   Atom        0.579811     -1.682409     -1.013238
     2   Atom        0.399982     -0.948016     -0.602579
     3   Atom       -0.005150     -0.010088     -0.007613
     4   Atom        0.017954      0.020739      0.016662
     5   Atom        0.112510      0.006543      0.004983
     6   Atom       -0.002421      0.001943     -0.000726
     7   Atom       -0.000031     -0.000116      0.000685
     8   Atom       -0.029413     -0.009420      0.004967
     9   Atom        0.000904     -0.002210     -0.000642
    10   Atom        0.086228      0.031647      0.032796
    11   Atom        0.003693      0.002687     -0.008268
    12   Atom        0.007406      0.004955      0.004481
    13   Atom       -0.000589      0.002861     -0.000599
    14   Atom       -0.005301      0.004709     -0.003049
    15   Atom       -0.001427      0.001189     -0.000927
    16   Atom        0.000095     -0.000755     -0.000024
    17   Atom       -0.001040     -0.000222      0.000172
    18   Atom       -0.000719     -0.001380      0.000560
 --------------------------------------------------------


 ---------------------------------------------------------------------------------
              Anisotropic Spin Dipole Couplings in Principal Axis System
 ---------------------------------------------------------------------------------

       Atom             a.u.   MegaHertz   Gauss  10(-4) cm-1        Axes

              Baa    -1.4139   102.306    36.505    34.126  0.5235  0.6577  0.5417
     1 O(17)  Bbb    -1.3803    99.878    35.639    33.316  0.6995 -0.6948  0.1675
              Bcc     2.7942  -202.184   -72.144   -67.441 -0.4865 -0.2912  0.8237
 
              Baa    -0.7978    57.731    20.600    19.257  0.6518  0.3601  0.6674
     2 O(17)  Bbb    -0.6642    48.064    17.150    16.032 -0.5086  0.8604  0.0325
[...]
    12  H    0.000201   0.000334   0.003591  -0.025165  -0.019197   0.502883
    13  H   -0.031791  -0.000168  -0.000151  -0.000411   0.000051   0.000236
    14  H   -0.011126  -0.002494   0.000035  -0.000907   0.000515  -0.007178
    15  H    0.047122  -0.000291  -0.000124   0.000843  -0.000056   0.000019
    16  H    0.442846  -0.000082   0.001804  -0.000008  -0.000038   0.000023
    17  H    0.383090  -0.000033   0.000279  -0.000081   0.000024   0.000073
    18  H    0.427925  -0.000144   0.000377   0.000300  -0.000017  -0.000058
             13         14         15         16         17         18
     1  O    0.000497   0.005183  -0.001125   0.000046   0.000009  -0.000023
     2  O    0.000047   0.000625  -0.000808   0.000011  -0.000035  -0.000542
     3  C   -0.005114   0.007132   0.018502   0.072557  -0.032822  -0.008636
     4  C   -0.039347  -0.038809  -0.059203  -0.125999   0.002087  -0.040899
     5  C   -0.003153   0.010810  -0.000857   0.012065  -0.003901   0.004165
     6  C    0.450589   0.405877   0.362790  -0.024488   0.024969  -0.018734
     7  C   -0.031791  -0.011126   0.047122   0.442846   0.383090   0.427925
     8  H   -0.000168  -0.002494  -0.000291  -0.000082  -0.000033  -0.000144
     9  H   -0.000151   0.000035  -0.000124   0.001804   0.000279   0.000377
    10  H   -0.000411  -0.000907   0.000843  -0.000008  -0.000081   0.000300
    11  H    0.000051   0.000515  -0.000056  -0.000038   0.000024  -0.000017
    12  H    0.000236  -0.007178   0.000019   0.000023   0.000073  -0.000058
    13  H    0.504877  -0.020913  -0.033370  -0.000068   0.001624  -0.000037
    14  H   -0.020913   0.509446  -0.027626  -0.000239   0.000173   0.000099
    15  H   -0.033370  -0.027626   0.539960   0.000248  -0.003930   0.003494
    16  H   -0.000068  -0.000239   0.000248   0.518334  -0.022875  -0.023269
    17  H    0.001624   0.000173  -0.003930  -0.022875   0.551233  -0.046139
    18  H   -0.000037   0.000099   0.003494  -0.023269  -0.046139   0.553517
 Mulliken atomic charges:
              1
     1  O   -0.315483
     2  O   -0.143431
     3  C   -0.057090
     4  C    0.460424
     5  C   -0.761776
     6  C   -0.664889
     7  C   -0.581254
     8  H    0.248737
     9  H    0.165670
    10  H    0.362230
    11  H    0.165562
    12  H    0.176883
    13  H    0.176603
    14  H    0.169398
    15  H    0.154410
    16  H    0.149131
    17  H    0.146255
    18  H    0.148620
 Sum of Mulliken atomic charges =   0.00000
 Mulliken charges with hydrogens summed into heavy atoms:
              1
     1  O    0.046748
     2  O    0.105306
     3  C    0.108580
     4  C    0.460424
     5  C   -0.419331
     6  C   -0.164479
     7  C   -0.137247
 Sum of Mulliken charges with hydrogens summed into heavy atoms =   0.00000
          Atomic-Atomic Spin Densities.
              1          2          3          4          5          6
     1  O    0.552597  -0.080836   0.054221   0.001602  -0.119289   0.002878
     2  O   -0.080836   0.145705  -0.018218  -0.030475   0.039405   0.006169
     3  C    0.054221  -0.018218  -0.195250   0.144415  -0.045022  -0.047935
     4  C    0.001602  -0.030475   0.144415   0.244232  -0.068258   0.031035
     5  C   -0.119289   0.039405  -0.045022  -0.068258   0.529207   0.003981
     6  C    0.002878   0.006169  -0.047935   0.031035   0.003981  -0.035968
     7  C   -0.005252   0.003688  -0.030871   0.012680   0.013483   0.007304
     8  H    0.005053  -0.003333  -0.000722   0.001490  -0.001845   0.000028
     9  H   -0.000657   0.000661  -0.003072   0.001326   0.000445   0.000956
    10  H   -0.056031   0.030771  -0.061040   0.036617   0.107643  -0.002897
    11  H    0.004310  -0.001553   0.012404  -0.002881  -0.014357   0.001146
    12  H    0.007853  -0.002246   0.020271  -0.008375  -0.023102   0.004053
    13  H    0.000399  -0.000251   0.005609  -0.013400  -0.002623   0.009806
    14  H   -0.001623   0.000518  -0.001237  -0.003456   0.003667   0.001768
    15  H   -0.000789   0.000797  -0.006173  -0.004585   0.003283   0.002901
    16  H    0.000032  -0.000067   0.003338  -0.002452  -0.000533   0.000149
    17  H    0.000106  -0.000160   0.003325  -0.014652  -0.001776  -0.000240
    18  H   -0.000378   0.000843  -0.006392  -0.006548   0.002464   0.002248
              7          8          9         10         11         12
     1  O   -0.005252   0.005053  -0.000657  -0.056031   0.004310   0.007853
     2  O    0.003688  -0.003333   0.000661   0.030771  -0.001553  -0.002246
     3  C   -0.030871  -0.000722  -0.003072  -0.061040   0.012404   0.020271
     4  C    0.012680   0.001490   0.001326   0.036617  -0.002881  -0.008375
     5  C    0.013483  -0.001845   0.000445   0.107643  -0.014357  -0.023102
     6  C    0.007304   0.000028   0.000956  -0.002897   0.001146   0.004053
     7  C   -0.035614   0.000318  -0.000457  -0.000963   0.000135   0.000540
     8  H    0.000318  -0.005467   0.000016  -0.000684   0.000059   0.000023
     9  H   -0.000457   0.000016   0.008834   0.000215  -0.000091  -0.000213
    10  H   -0.000963  -0.000684   0.000215  -0.063851  -0.000782  -0.001331
    11  H    0.000135   0.000059  -0.000091  -0.000782  -0.018251   0.004120
    12  H    0.000540   0.000023  -0.000213  -0.001331   0.004120  -0.019700
    13  H    0.000229   0.000027  -0.000031  -0.000221   0.000026   0.000421
    14  H   -0.000925   0.000124   0.000025   0.000522  -0.000096  -0.000133
    15  H    0.001827  -0.000081   0.000024   0.000144  -0.000011  -0.000136
    16  H   -0.000552   0.000006  -0.000101  -0.000020   0.000007   0.000005
    17  H    0.010079   0.000006  -0.000104  -0.000043   0.000010   0.000035
    18  H    0.005136  -0.000013   0.000119   0.000066  -0.000009  -0.000021
             13         14         15         16         17         18
     1  O    0.000399  -0.001623  -0.000789   0.000032   0.000106  -0.000378
     2  O   -0.000251   0.000518   0.000797  -0.000067  -0.000160   0.000843
     3  C    0.005609  -0.001237  -0.006173   0.003338   0.003325  -0.006392
     4  C   -0.013400  -0.003456  -0.004585  -0.002452  -0.014652  -0.006548
     5  C   -0.002623   0.003667   0.003283  -0.000533  -0.001776   0.002464
     6  C    0.009806   0.001768   0.002901   0.000149  -0.000240   0.002248
     7  C    0.000229  -0.000925   0.001827  -0.000552   0.010079   0.005136
     8  H    0.000027   0.000124  -0.000081   0.000006   0.000006  -0.000013
     9  H   -0.000031   0.000025   0.000024  -0.000101  -0.000104   0.000119
    10  H   -0.000221   0.000522   0.000144  -0.000020  -0.000043   0.000066
    11  H    0.000026  -0.000096  -0.000011   0.000007   0.000010  -0.000009
    12  H    0.000421  -0.000133  -0.000136   0.000005   0.000035  -0.000021
    13  H    0.016600  -0.001594  -0.003589   0.000021   0.001397  -0.000566
    14  H   -0.001594   0.003184   0.001072  -0.000007  -0.000090   0.000120
    15  H   -0.003589   0.001072   0.011866  -0.000021  -0.001004   0.001693
    16  H    0.000021  -0.000007  -0.000021   0.000790   0.000409  -0.000493
    17  H    0.001397  -0.000090  -0.001004   0.000409   0.019684  -0.005724
    18  H   -0.000566   0.000120   0.001693  -0.000493  -0.005724   0.020576
 Mulliken atomic spin densities:
              1
     1  O    0.364199
     2  O    0.091418
     3  C   -0.172349
     4  C    0.318316
     5  C    0.426772
     6  C   -0.012614
     7  C   -0.019215
     8  H   -0.004996
     9  H    0.007895
    10  H   -0.011886
    11  H   -0.015816
    12  H   -0.017937
    13  H    0.012261
    14  H    0.001838
    15  H    0.007219
    16  H    0.000510
    17  H    0.011259
    18  H    0.013124
 Sum of Mulliken atomic spin densities =   1.00000
 Electronic spatial extent (au):  <R**2>=            995.2865
 Charge=              0.0000 electrons
 Dipole moment (field-independent basis, Debye):
    X=              3.3719    Y=              0.3135    Z=              0.6816  Tot=              3.4543
 Quadrupole moment (field-independent basis, Debye-Ang):
   XX=            -51.6185   YY=            -42.7392   ZZ=            -43.6524
   XY=             -4.1597   XZ=              0.0673   YZ=             -1.5898
 Traceless Quadrupole moment (field-independent basis, Debye-Ang):
   XX=             -5.6152   YY=              3.2642   ZZ=              2.3510
   XY=             -4.1597   XZ=              0.0673   YZ=             -1.5898
 Octapole moment (field-independent basis, Debye-Ang**2):
  XXX=             11.6292  YYY=            -11.8984  ZZZ=             -2.5037  XYY=             -7.4428
  XXY=              4.1322  XXZ=              0.2492  XZZ=             -2.0691  YZZ=              0.6253
  YYZ=              3.4124  XYZ=              3.3447
 Hexadecapole moment (field-independent basis, Debye-Ang**3):
 XXXX=           -804.8312 YYYY=           -291.0352 ZZZZ=           -234.6124 XXXY=             -3.2919
 XXXZ=              6.7275 YYYX=              0.6949 YYYZ=             -4.1015 ZZZX=             -2.0372
 ZZZY=              0.1162 XXYY=           -180.5896 XXZZ=           -167.0004 YYZZ=            -87.2837
 XXYZ=             -0.5456 YYXZ=             -0.1539 ZZXY=              1.1549
 N-N= 3.130104892125D+02 E-N=-2.147568813932D+03  KE= 5.178415969206D+02
                          Isotropic Fermi Contact Couplings
        Atom                 a.u.       MegaHertz       Gauss      10(-4) cm-1
     1  O(17)              0.08575     -51.98346     -18.54899     -17.33982
     2  O(17)              0.01709     -10.35818      -3.69606      -3.45512
     3  C(13)             -0.02695     -30.29489     -10.80997     -10.10529
     4  C(13)              0.03896      43.79632      15.62762      14.60888
     5  C(13)              0.10198     114.64111      40.90680      38.24016
     6  C(13)             -0.01070     -12.02748      -4.29171      -4.01194
     7  C(13)             -0.01085     -12.20300      -4.35433      -4.07048
     8  H(1)              -0.00208      -9.31838      -3.32503      -3.10828
     9  H(1)               0.00153       6.84078       2.44096       2.28184
    10  H(1)              -0.02739    -122.44268     -43.69059     -40.84248
    11  H(1)              -0.00360     -16.07526      -5.73605      -5.36213
    12  H(1)              -0.00460     -20.58179      -7.34410      -6.86535
    13  H(1)               0.00702      31.36021      11.19010      10.46064
    14  H(1)               0.00055       2.47746       0.88402       0.82639
    15  H(1)               0.00358      16.02334       5.71753       5.34481
    16  H(1)               0.00007       0.30332       0.10823       0.10118
    17  H(1)               0.00643      28.73199      10.25229       9.58396
    18  H(1)               0.00729      32.56971      11.62168      10.86409
 --------------------------------------------------------
       Center         ----  Spin Dipole Couplings  ----
                      3XX-RR        3YY-RR        3ZZ-RR
 --------------------------------------------------------
     1   Atom        0.349589      0.314660     -0.664249
     2   Atom        0.097451      0.167535     -0.264985
     3   Atom        0.015468     -0.051889      0.036421
     4   Atom        0.018017      0.146313     -0.164330
     5   Atom        0.123538      0.107316     -0.230853
     6   Atom        0.000794     -0.000839      0.000045
     7   Atom        0.002547      0.001868     -0.004415
     8   Atom        0.006097      0.002829     -0.008925
     9   Atom        0.004195     -0.002378     -0.001817
    10   Atom        0.006720      0.075961     -0.082680
    11   Atom       -0.003223      0.007121     -0.003898
    12   Atom       -0.016873     -0.007936      0.024809
    13   Atom       -0.000013     -0.003625      0.003638
    14   Atom       -0.000129     -0.004321      0.004450
    15   Atom       -0.000834     -0.001686      0.002520
    16   Atom        0.000758     -0.002158      0.001399
    17   Atom        0.005780     -0.002913     -0.002867
    18   Atom        0.000610      0.002366     -0.002976
 --------------------------------------------------------
                        XY            XZ            YZ
 --------------------------------------------------------
     1   Atom        1.279578     -0.583930     -0.579796
     2   Atom        0.416752     -0.083710     -0.153511
     3   Atom       -0.074631     -0.007151     -0.012232
     4   Atom        0.236522      0.025722      0.037769
     5   Atom        0.361405     -0.067038     -0.071072
     6   Atom        0.002035      0.003065      0.000123
     7   Atom        0.001328     -0.001765      0.001597
     8   Atom       -0.013259      0.013292     -0.011207
     9   Atom       -0.004626     -0.000563     -0.001986
    10   Atom        0.125698     -0.033769     -0.044200
    11   Atom       -0.003920      0.018170     -0.028253
    12   Atom        0.014960      0.003234      0.017141
    13   Atom        0.000423      0.003606      0.001013
    14   Atom       -0.000242      0.002377     -0.000781
    15   Atom       -0.001482      0.001964     -0.003797
    16   Atom       -0.001304     -0.003977      0.002144
    17   Atom       -0.002296     -0.000765      0.000455
    18   Atom       -0.004220     -0.001334      0.001262
 --------------------------------------------------------


 ---------------------------------------------------------------------------------
              Anisotropic Spin Dipole Couplings in Principal Axis System
 ---------------------------------------------------------------------------------

       Atom             a.u.   MegaHertz   Gauss  10(-4) cm-1        Axes

              Baa    -0.9480    68.593    24.476    22.880 -0.6630  0.7357  0.1389
     1 O(17)  Bbb    -0.9302    67.309    24.018    22.452  0.3194  0.1101  0.9412
              Bcc     1.8782  -135.902   -48.493   -45.332  0.6771  0.6683 -0.3079
 
              Baa    -0.3343    24.190     8.632     8.069 -0.3814  0.5451  0.7465
     2 O(17)  Bbb    -0.2504    18.116     6.464     6.043  0.6507 -0.4153  0.6357
              Bcc     0.5847   -42.307   -15.096   -14.112  0.6566  0.7282 -0.1963
 
              Baa    -0.1015   -13.626    -4.862    -4.545  0.5394  0.8359  0.1021
     3 C(13)  Bbb     0.0379     5.080     1.813     1.695 -0.0757 -0.0726  0.9945
              Bcc     0.0637     8.546     3.049     2.851  0.8387 -0.5441  0.0242
 
              Baa    -0.1695   -22.743    -8.115    -7.586  0.2307 -0.2841  0.9306
     4 C(13)  Bbb    -0.1619   -21.732    -7.754    -7.249  0.7624 -0.5415 -0.3543
              Bcc     0.3314    44.475    15.870    14.835  0.6046  0.7912  0.0916
 
              Baa    -0.2491   -33.428   -11.928   -11.150 -0.4937  0.6218  0.6079
     5 C(13)  Bbb    -0.2410   -32.344   -11.541   -10.789  0.5049 -0.3642  0.7826
              Bcc     0.4901    65.772    23.469    21.939  0.7080  0.6933 -0.1342
 
              Baa    -0.0034    -0.455    -0.162    -0.152  0.6568 -0.4961 -0.5679
     6 C(13)  Bbb    -0.0007    -0.090    -0.032    -0.030  0.1034  0.8053 -0.5838
              Bcc     0.0041     0.545     0.194     0.182  0.7469  0.3248  0.5802
 
              Baa    -0.0053    -0.715    -0.255    -0.238  0.2521 -0.2538  0.9338
     7 C(13)  Bbb     0.0017     0.231     0.082     0.077 -0.5106  0.7849  0.3512
              Bcc     0.0036     0.484     0.173     0.161  0.8220  0.5653 -0.0683
 
              Baa    -0.0175    -9.336    -3.331    -3.114 -0.3588  0.2602  0.8964
     8 H(1)   Bbb    -0.0089    -4.739    -1.691    -1.581  0.6442  0.7640  0.0361
              Bcc     0.0264    14.075     5.022     4.695  0.6754 -0.5905  0.4417
 
              Baa    -0.0058    -3.093    -1.104    -1.032  0.3952  0.7984  0.4542
     9 H(1)   Bbb    -0.0008    -0.430    -0.153    -0.143 -0.2523 -0.3811  0.8894
              Bcc     0.0066     3.523     1.257     1.175  0.8833 -0.4661  0.0508
 
              Baa    -0.0943   -50.320   -17.956   -16.785  0.1354  0.1541  0.9787
    10 H(1)   Bbb    -0.0890   -47.506   -16.951   -15.846  0.7936 -0.6083 -0.0140
              Bcc     0.1833    97.826    34.907    32.631  0.5932  0.7786 -0.2047
 
              Baa    -0.0323   -17.256    -6.157    -5.756 -0.4071  0.5046  0.7613
    11 H(1)   Bbb    -0.0038    -2.008    -0.717    -0.670  0.8378  0.5384  0.0912
              Bcc     0.0361    19.264     6.874     6.426 -0.3638  0.6749 -0.6419
 
              Baa    -0.0293   -15.619    -5.573    -5.210  0.7423 -0.6503  0.1617
    12 H(1)   Bbb    -0.0045    -2.410    -0.860    -0.804  0.6446  0.6269 -0.4375
              Bcc     0.0338    18.030     6.433     6.014  0.1831  0.4290  0.8845
 
              Baa    -0.0038    -2.009    -0.717    -0.670  0.0348  0.9878 -0.1521
    13 H(1)   Bbb    -0.0022    -1.179    -0.421    -0.393  0.8545 -0.1084 -0.5081
              Bcc     0.0060     3.189     1.138     1.064  0.5183  0.1123  0.8478
 
              Baa    -0.0044    -2.343    -0.836    -0.781  0.0088  0.9963  0.0857
    14 H(1)   Bbb    -0.0011    -0.607    -0.217    -0.203  0.9212  0.0253 -0.3883
              Bcc     0.0055     2.950     1.053     0.984  0.3891 -0.0824  0.9175
 
              Baa    -0.0040    -2.111    -0.753    -0.704  0.1139  0.8717  0.4766
    15 H(1)   Bbb    -0.0017    -0.918    -0.328    -0.306  0.9291  0.0765 -0.3619
              Bcc     0.0057     3.029     1.081     1.010  0.3519 -0.4840  0.8012
 
              Baa    -0.0034    -1.807    -0.645    -0.603 -0.3848  0.6800 -0.6242
    16 H(1)   Bbb    -0.0024    -1.303    -0.465    -0.435  0.6694  0.6712  0.3185
              Bcc     0.0058     3.110     1.110     1.037 -0.6355  0.2953  0.7134
 
              Baa    -0.0036    -1.913    -0.682    -0.638  0.1924  0.9085 -0.3710
    17 H(1)   Bbb    -0.0028    -1.517    -0.541    -0.506  0.1728  0.3408  0.9241
              Bcc     0.0064     3.429     1.224     1.144  0.9660 -0.2419 -0.0914
 
              Baa    -0.0034    -1.830    -0.653    -0.610  0.3933  0.0871  0.9153
    18 H(1)   Bbb    -0.0027    -1.458    -0.520    -0.486  0.6763  0.6470 -0.3521
              Bcc     0.0062     3.288     1.173     1.097 -0.6228  0.7575  0.1955
 

 ---------------------------------------------------------------------------------

 No NMR shielding tensors so no spin-rotation constants.
 Leave Link  601 at Tue Jun 12 19:43:55 2018, MaxMem=  671088640 cpu:      20.9
 (Enter /shared/apps/gaussian/G09_LINUX_LINDA/g09/l9999.exe)
 1\1\GINC-COMPUTE-3-041\FOpt\UM062X\6-311+G(2df,2p)\C5H11O2(2)\ROOT\12-
 Jun-2018\0\\#p m062x/6-311+g(2df,2p) Opt=(ModRedun,Loose) Int(Grid=SG1
 )\\Gaussian input prepared by ASE\\0,2\O,-2.8022527595,-0.048079222,0.
 0216422037\O,-2.2562136457,-1.2162080162,-0.4553131662\C,0.0904258033,
 0.5856124298,-0.9191571108\C,0.8096425563,-0.0948947659,0.0002660823\C
 ,-0.9458536242,1.5491811862,-0.6321355064\C,0.6153186148,0.0744269236,
 1.4782937149\C,1.8682982654,-1.0755308892,-0.4016764151\H,-1.697419970
 4,-1.5252633918,0.2695122353\H,0.2650763508,0.3505988789,-1.9634174433
 \H,-2.0012147782,0.8183698051,-0.3663318927\H,-1.2758608184,2.15458449
 2,-1.4680852078\H,-0.8635581485,2.1082535271,0.2936817599\H,1.43782272
 82,0.6514949655,1.9088205424\H,-0.319533622,0.5698328123,1.7289664676\
 H,0.6295980948,-0.8974621844,1.9762740414\H,1.9864713491,-1.1264248401
 ,-1.4817736315\H,2.8286819722,-0.8020755154,0.0423377928\H,1.630671632
 1,-2.0762161956,-0.0319044665\\Version=EM64L-G09RevB.01\State=2-A\HF=-
 347.3768652\S2=0.772142\S2-1=0.\S2A=0.750254\RMSD=5.302e-09\RMSF=1.538
 e-03\Dipole=1.3045767,0.0269391,0.3799435\Quadrupole=-4.766548,2.56652
 53,2.2000227,-2.1696027,-0.2650578,-1.516403\PG=C01 [X(C5H11O2)]\\@


 MICRO CREDO - NEVER TRUST A COMPUTER BIGGER
               BIGGER THAN YOU CAN LIFT.
 Job cpu time:  1 days 12 hours 59 minutes 47.1 seconds.
 File lengths (MBytes):  RWF=    154 Int=      0 D2E=      0 Chk=      9 Scr=      1
 Normal termination of Gaussian 09 at Tue Jun 12 19:43:56 2018.
