 Entering Gaussian System, Link 0=/shared/apps/gaussian/G09_LINUX_LINDA/g09/g09
 Input=/gss_gpfs_scratch/r.west/QMscratch/IJDNQMDRQITEOD-UHFFFAOYSA.gjf
 Output=/gss_gpfs_scratch/r.west/QMscratch/IJDNQMDRQITEOD-UHFFFAOYSA.log
 Initial command:
 /shared/apps/gaussian/G09_LINUX_LINDA/g09/l1.exe /home/r.west/Code/RMG-Py/scripts/Gau-32912.inp -scrdir=/home/r.west/Code/RMG-Py/scripts/
 Entering Link 1 = /shared/apps/gaussian/G09_LINUX_LINDA/g09/l1.exe PID=     32913.
  
 Copyright (c) 1988,1990,1992,1993,1995,1998,2003,2009,2010,
            Gaussian, Inc.  All Rights Reserved.
  
 This is part of the Gaussian(R) 09 program.  It is based on
 the Gaussian(R) 03 system (copyright 2003, Gaussian, Inc.),
 the Gaussian(R) 98 system (copyright 1998, Gaussian, Inc.),
 the Gaussian(R) 94 system (copyright 1995, Gaussian, Inc.),
 the Gaussian 92(TM) system (copyright 1992, Gaussian, Inc.),
 the Gaussian 90(TM) system (copyright 1990, Gaussian, Inc.),
 the Gaussian 88(TM) system (copyright 1988, Gaussian, Inc.),
 the Gaussian 86(TM) system (copyright 1986, Carnegie Mellon
 University), and the Gaussian 82(TM) system (copyright 1983,
 Carnegie Mellon University). Gaussian is a federally registered
 trademark of Gaussian, Inc.
  
 This software contains proprietary and confidential information,
 including trade secrets, belonging to Gaussian, Inc.
  
 This software is provided under written license and may be
 used, copied, transmitted, or stored only in accord with that
 written license.
  
 The following legend is applicable only to US Government
 contracts under FAR:
  
                    RESTRICTED RIGHTS LEGEND
  
 Use, reproduction and disclosure by the US Government is
 subject to restrictions as set forth in subparagraphs (a)
 and (c) of the Commercial Computer Software - Restricted
 Rights clause in FAR 52.227-19.
  
 Gaussian, Inc.
 340 Quinnipiac St., Bldg. 40, Wallingford CT 06492
  
  
 ---------------------------------------------------------------
 Warning -- This program may not be used in any manner that
 competes with the business of Gaussian, Inc. or will provide
 assistance to any competitor of Gaussian, Inc.  The licensee
 of this program is prohibited from giving any competitor of
 Gaussian, Inc. access to this program.  By using this program,
 the user acknowledges that Gaussian, Inc. is engaged in the
 business of creating and licensing software in the field of
 computational chemistry and represents and warrants to the
 licensee that it is not a competitor of Gaussian, Inc. and that
 it will not use this program in any manner prohibited above.
 ---------------------------------------------------------------
  

 Cite this work as:
 Gaussian 09, Revision B.01,
 M. J. Frisch, G. W. Trucks, H. B. Schlegel, G. E. Scuseria, 
 M. A. Robb, J. R. Cheeseman, G. Scalmani, V. Barone, B. Mennucci, 
 G. A. Petersson, H. Nakatsuji, M. Caricato, X. Li, H. P. Hratchian, 
 A. F. Izmaylov, J. Bloino, G. Zheng, J. L. Sonnenberg, M. Hada, 
 M. Ehara, K. Toyota, R. Fukuda, J. Hasegawa, M. Ishida, T. Nakajima, 
 Y. Honda, O. Kitao, H. Nakai, T. Vreven, J. A. Montgomery, Jr., 
 J. E. Peralta, F. Ogliaro, M. Bearpark, J. J. Heyd, E. Brothers, 
 K. N. Kudin, V. N. Staroverov, T. Keith, R. Kobayashi, J. Normand, 
 K. Raghavachari, A. Rendell, J. C. Burant, S. S. Iyengar, J. Tomasi, 
 M. Cossi, N. Rega, J. M. Millam, M. Klene, J. E. Knox, J. B. Cross, 
 V. Bakken, C. Adamo, J. Jaramillo, R. Gomperts, R. E. Stratmann, 
 O. Yazyev, A. J. Austin, R. Cammi, C. Pomelli, J. W. Ochterski, 
 R. L. Martin, K. Morokuma, V. G. Zakrzewski, G. A. Voth, 
 P. Salvador, J. J. Dannenberg, S. Dapprich, A. D. Daniels, 
 O. Farkas, J. B. Foresman, J. V. Ortiz, J. Cioslowski, 
 and D. J. Fox, Gaussian, Inc., Wallingford CT, 2010.
 
 ******************************************
 Gaussian 09:  EM64L-G09RevB.01 12-Aug-2010
                21-Sep-2016 
 ******************************************
 %nprocshared=20
 Will use up to   20 processors via shared memory.
 %mem=5GB
 --------------------------------------------------------------
 # m062x/6-311+g(2df,2p) opt=(verytight,gdiis) freq IOP(2/16=3)
 --------------------------------------------------------------

 Warning!  Use of Opt=GDIIS is deprecated since it is seldom a good choice.

 1/7=1,14=-1,18=20,19=11,26=3,38=1/1,3;
 2/9=110,12=2,16=3,17=6,18=5,40=1/2;
 3/5=4,6=6,7=214,11=2,16=1,25=1,30=1,71=1,74=-55/1,2,3;
 4//1;
 5/5=2,38=5/2;
 6/7=2,8=2,9=2,10=2,28=1/1;
 7//1,2,3,16;
 1/7=1,14=-1,18=20,19=11/3(2);
 2/9=110,16=3/2;
 99//99;
 2/9=110,16=3/2;
 3/5=4,6=6,7=214,11=2,16=1,25=1,30=1,71=1,74=-55/1,2,3;
 4/5=5,16=3/1;
 5/5=2,38=5/2;
 7//1,2,3,16;
 1/7=1,14=-1,18=20,19=11/3(-5);
 2/9=110,16=3/2;
 6/7=2,8=2,9=2,10=2,19=2,28=1/1;
 99/9=1/99;
 ------------------------------------
 InChI=1S/C4H10/c1-3-4-2/h3-4H2,1-2H3
 ------------------------------------
 Symbolic Z-matrix:
 Charge =  0 Multiplicity = 1
 C                    -0.5844   -0.0418   -0.3564 
 C                     0.5844    0.0418    0.6314 
 C                    -1.9244    0.0592    0.3664 
 C                     1.9244   -0.0592   -0.0913 
 H                    -0.5436   -1.0083   -0.9048 
 H                    -0.5111    0.7859   -1.0952 
 H                     0.5111   -0.7859    1.3702 
 H                     0.5436    1.0083    1.1798 
 H                    -2.034    -0.7729    1.0942 
 H                    -2.0013    1.0288    0.903 
 H                    -2.751    -0.0043   -0.3724 
 H                     2.0013   -1.0288   -0.628 
 H                     2.034     0.7729   -0.8192 
 H                     2.751     0.0043    0.6474 
 

 GradGradGradGradGradGradGradGradGradGradGradGradGradGradGradGradGradGrad
 Berny optimization.
 Initialization pass.
                           ----------------------------
                           !    Initial Parameters    !
                           ! (Angstroms and Degrees)  !
 --------------------------                            --------------------------
 ! Name  Definition              Value          Derivative Info.                !
 --------------------------------------------------------------------------------
 ! R1    R(1,2)                  1.5326         estimate D2E/DX2                !
 ! R2    R(1,3)                  1.5259         estimate D2E/DX2                !
 ! R3    R(1,5)                  1.112          estimate D2E/DX2                !
 ! R4    R(1,6)                  1.1119         estimate D2E/DX2                !
 ! R5    R(2,4)                  1.5258         estimate D2E/DX2                !
 ! R6    R(2,7)                  1.1119         estimate D2E/DX2                !
 ! R7    R(2,8)                  1.112          estimate D2E/DX2                !
 ! R8    R(3,9)                  1.1109         estimate D2E/DX2                !
 ! R9    R(3,10)                 1.1108         estimate D2E/DX2                !
 ! R10   R(3,11)                 1.1105         estimate D2E/DX2                !
 ! R11   R(4,12)                 1.1109         estimate D2E/DX2                !
 ! R12   R(4,13)                 1.111          estimate D2E/DX2                !
 ! R13   R(4,14)                 1.1104         estimate D2E/DX2                !
 ! A1    A(2,1,3)              111.1501         estimate D2E/DX2                !
 ! A2    A(2,1,5)              109.7119         estimate D2E/DX2                !
 ! A3    A(2,1,6)              109.7174         estimate D2E/DX2                !
 ! A4    A(3,1,5)              108.8667         estimate D2E/DX2                !
 ! A5    A(3,1,6)              108.8671         estimate D2E/DX2                !
 ! A6    A(5,1,6)              108.4758         estimate D2E/DX2                !
 ! A7    A(1,2,4)              111.1534         estimate D2E/DX2                !
 ! A8    A(1,2,7)              109.7174         estimate D2E/DX2                !
 ! A9    A(1,2,8)              109.7119         estimate D2E/DX2                !
 ! A10   A(4,2,7)              108.8651         estimate D2E/DX2                !
 ! A11   A(4,2,8)              108.8654         estimate D2E/DX2                !
 ! A12   A(7,2,8)              108.4758         estimate D2E/DX2                !
 ! A13   A(1,3,9)              110.3286         estimate D2E/DX2                !
 ! A14   A(1,3,10)             110.328          estimate D2E/DX2                !
 ! A15   A(1,3,11)             109.5582         estimate D2E/DX2                !
 ! A16   A(9,3,10)             109.2986         estimate D2E/DX2                !
 ! A17   A(9,3,11)             108.6389         estimate D2E/DX2                !
 ! A18   A(10,3,11)            108.6486         estimate D2E/DX2                !
 ! A19   A(2,4,12)             110.3284         estimate D2E/DX2                !
 ! A20   A(2,4,13)             110.328          estimate D2E/DX2                !
 ! A21   A(2,4,14)             109.5653         estimate D2E/DX2                !
 ! A22   A(12,4,13)            109.2903         estimate D2E/DX2                !
 ! A23   A(12,4,14)            108.6499         estimate D2E/DX2                !
 ! A24   A(13,4,14)            108.639          estimate D2E/DX2                !
 ! D1    D(3,1,2,4)            179.9996         estimate D2E/DX2                !
 ! D2    D(3,1,2,7)             59.5372         estimate D2E/DX2                !
 ! D3    D(3,1,2,8)            -59.5412         estimate D2E/DX2                !
 ! D4    D(5,1,2,4)             59.5408         estimate D2E/DX2                !
 ! D5    D(5,1,2,7)            -60.9216         estimate D2E/DX2                !
 ! D6    D(5,1,2,8)            180.0            estimate D2E/DX2                !
 ! D7    D(6,1,2,4)            -59.5376         estimate D2E/DX2                !
 ! D8    D(6,1,2,7)            180.0            estimate D2E/DX2                !
 ! D9    D(6,1,2,8)             60.9216         estimate D2E/DX2                !
 ! D10   D(2,1,3,9)            -60.4351         estimate D2E/DX2                !
 ! D11   D(2,1,3,10)            60.4356         estimate D2E/DX2                !
 ! D12   D(2,1,3,11)          -179.994          estimate D2E/DX2                !
 ! D13   D(5,1,3,9)             60.5217         estimate D2E/DX2                !
 ! D14   D(5,1,3,10)          -178.6076         estimate D2E/DX2                !
 ! D15   D(5,1,3,11)           -59.0372         estimate D2E/DX2                !
 ! D16   D(6,1,3,9)            178.601          estimate D2E/DX2                !
 ! D17   D(6,1,3,10)           -60.5283         estimate D2E/DX2                !
 ! D18   D(6,1,3,11)            59.0421         estimate D2E/DX2                !
 ! D19   D(1,2,4,12)           -60.4298         estimate D2E/DX2                !
 ! D20   D(1,2,4,13)            60.4304         estimate D2E/DX2                !
 ! D21   D(1,2,4,14)           179.9934         estimate D2E/DX2                !
 ! D22   D(7,2,4,12)            60.5348         estimate D2E/DX2                !
 ! D23   D(7,2,4,13)          -178.605          estimate D2E/DX2                !
 ! D24   D(7,2,4,14)           -59.042          estimate D2E/DX2                !
 ! D25   D(8,2,4,12)           178.6122         estimate D2E/DX2                !
 ! D26   D(8,2,4,13)           -60.5276         estimate D2E/DX2                !
 ! D27   D(8,2,4,14)            59.0354         estimate D2E/DX2                !
 --------------------------------------------------------------------------------
 Trust Radius=3.00D-01 FncErr=1.00D-07 GrdErr=1.00D-06
 Number of steps in this run=     74 maximum allowed number of steps=    100.
 GradGradGradGradGradGradGradGradGradGradGradGradGradGradGradGradGradGrad

                          Input orientation:                          
 ---------------------------------------------------------------------
 Center     Atomic      Atomic             Coordinates (Angstroms)
 Number     Number       Type             X           Y           Z
 ---------------------------------------------------------------------
      1          6           0       -0.584400   -0.041800   -0.356400
      2          6           0        0.584400    0.041800    0.631400
      3          6           0       -1.924400    0.059200    0.366400
      4          6           0        1.924400   -0.059200   -0.091300
      5          1           0       -0.543600   -1.008300   -0.904800
      6          1           0       -0.511100    0.785900   -1.095200
      7          1           0        0.511100   -0.785900    1.370200
      8          1           0        0.543600    1.008300    1.179800
      9          1           0       -2.034000   -0.772900    1.094200
     10          1           0       -2.001300    1.028800    0.903000
     11          1           0       -2.751000   -0.004300   -0.372400
     12          1           0        2.001300   -1.028800   -0.628000
     13          1           0        2.034000    0.772900   -0.819200
     14          1           0        2.751000    0.004300    0.647400
 ---------------------------------------------------------------------
                    Distance matrix (angstroms):
                    1          2          3          4          5
     1  C    0.000000
     2  C    1.532590   0.000000
     3  C    1.525857   2.522817   0.000000
     4  C    2.522827   1.525810   3.877727   0.000000
     5  H    1.111993   2.176007   2.159193   2.766514   0.000000
     6  H    1.111884   2.175995   2.159117   2.766527   1.804567
     7  H    2.175995   1.111884   2.766490   2.159049   2.517435
     8  H    2.176007   1.111993   2.766484   2.159134   3.097456
     9  H    2.177174   2.780996   1.110898   4.193293   2.504537
    10  H    2.177126   2.780967   1.110845   4.193268   3.089143
    11  H    2.166984   3.483480   1.110462   4.684164   2.482757
    12  H    2.780967   2.177126   4.193292   1.110894   2.559991
    13  H    2.780996   2.177174   4.193322   1.110964   3.134330
    14  H    3.483480   2.166984   4.684158   1.110395   3.780089
                    6          7          8          9         10
     6  H    0.000000
     7  H    3.097361   0.000000
     8  H    2.517435   1.804567   0.000000
     9  H    3.089102   2.560054   3.134330   0.000000
    10  H    2.504496   3.134257   2.559991   1.812112   0.000000
    11  H    2.482742   3.780059   3.780089   1.804370   1.804436
    12  H    3.134257   2.504496   3.089143   4.394895   4.753786
    13  H    2.560054   3.089102   2.504537   4.753864   4.394895
    14  H    3.780059   2.482742   2.482757   4.868254   4.868191
                   11         12         13         14
    11  H    0.000000
    12  H    4.868191   0.000000
    13  H    4.868254   1.812112   0.000000
    14  H    5.595719   1.804436   1.804370   0.000000
 Stoichiometry    C4H10
 Framework group  C1[X(C4H10)]
 Deg. of freedom    36
 Full point group                 C1      NOp   1
 Largest Abelian subgroup         C1      NOp   1
 Largest concise Abelian subgroup C1      NOp   1
                         Standard orientation:                         
 ---------------------------------------------------------------------
 Center     Atomic      Atomic             Coordinates (Angstroms)
 Number     Number       Type             X           Y           Z
 ---------------------------------------------------------------------
      1          6           0       -0.556776    0.526523    0.000038
      2          6           0        0.556778   -0.526488   -0.000034
      3          6           0       -1.934559   -0.129187    0.000013
      4          6           0        1.934555    0.129122   -0.000019
      5          1           0       -0.464697    1.169841   -0.902288
      6          1           0       -0.464730    1.169775    0.902279
      7          1           0        0.464731   -1.169740   -0.902275
      8          1           0        0.464699   -1.169806    0.902292
      9          1           0       -2.062170   -0.759089   -0.906096
     10          1           0       -2.062138   -0.759155    0.906015
     11          1           0       -2.719893    0.655909   -0.000044
     12          1           0        2.062140    0.759190   -0.906012
     13          1           0        2.062172    0.759124    0.906100
     14          1           0        2.719895   -0.655874    0.000048
 ---------------------------------------------------------------------
 Rotational constants (GHZ):     22.6128534      3.6948569      3.4627935
 Standard basis: 6-311+G(2df,2p) (5D, 7F)
 There are   226 symmetry adapted basis functions of A   symmetry.
 Integral buffers will be    131072 words long.
 Raffenetti 2 integral format.
 Two-electron integral symmetry is turned on.
   226 basis functions,   318 primitive gaussians,   246 cartesian basis functions
    17 alpha electrons       17 beta electrons
       nuclear repulsion energy       130.3795036887 Hartrees.
 NAtoms=   14 NActive=   14 NUniq=   14 SFac= 1.00D+00 NAtFMM=   50 NAOKFM=F Big=F
 One-electron integrals computed using PRISM.
 NBasis=   226 RedAO= T  NBF=   226
 NBsUse=   226 1.00D-06 NBFU=   226
 Harris functional with IExCor= 1009 diagonalized for initial guess.
 ExpMin= 4.38D-02 ExpMax= 4.56D+03 ExpMxC= 6.82D+02 IAcc=2 IRadAn=         0 AccDes= 0.00D+00
 HarFok:  IExCor= 1009 AccDes= 0.00D+00 IRadAn=         0 IDoV= 1
 ScaDFX=  1.000000  1.000000  1.000000  1.000000
 FoFCou: FMM=F IPFlag=           0 FMFlag=      100000 FMFlg1=           0
         NFxFlg=           0 DoJE=T BraDBF=F KetDBF=T FulRan=T
         Omega=  0.000000  0.000000  1.000000  0.000000  0.000000 ICntrl=     500 IOpCl=  0
         NMat0=    1 NMatS0=    1 NMatT0=    0 NMatD0=    1 NMtDS0=    0 NMtDT0=    0
         I1Cent=           4 NGrid=           0.
 Petite list used in FoFCou.
 Initial guess orbital symmetries:
       Occupied  (A) (A) (A) (A) (A) (A) (A) (A) (A) (A) (A) (A)
                 (A) (A) (A) (A) (A)
       Virtual   (A) (A) (A) (A) (A) (A) (A) (A) (A) (A) (A) (A)
                 (A) (A) (A) (A) (A) (A) (A) (A) (A) (A) (A) (A)
                 (A) (A) (A) (A) (A) (A) (A) (A) (A) (A) (A) (A)
                 (A) (A) (A) (A) (A) (A) (A) (A) (A) (A) (A) (A)
                 (A) (A) (A) (A) (A) (A) (A) (A) (A) (A) (A) (A)
                 (A) (A) (A) (A) (A) (A) (A) (A) (A) (A) (A) (A)
                 (A) (A) (A) (A) (A) (A) (A) (A) (A) (A) (A) (A)
                 (A) (A) (A) (A) (A) (A) (A) (A) (A) (A) (A) (A)
                 (A) (A) (A) (A) (A) (A) (A) (A) (A) (A) (A) (A)
                 (A) (A) (A) (A) (A) (A) (A) (A) (A) (A) (A) (A)
                 (A) (A) (A) (A) (A) (A) (A) (A) (A) (A) (A) (A)
                 (A) (A) (A) (A) (A) (A) (A) (A) (A) (A) (A) (A)
                 (A) (A) (A) (A) (A) (A) (A) (A) (A) (A) (A) (A)
                 (A) (A) (A) (A) (A) (A) (A) (A) (A) (A) (A) (A)
                 (A) (A) (A) (A) (A) (A) (A) (A) (A) (A) (A) (A)
                 (A) (A) (A) (A) (A) (A) (A) (A) (A) (A) (A) (A)
                 (A) (A) (A) (A) (A) (A) (A) (A) (A) (A) (A) (A)
                 (A) (A) (A) (A) (A)
 The electronic state of the initial guess is 1-A.
 Requested convergence on RMS density matrix=1.00D-08 within 128 cycles.
 Requested convergence on MAX density matrix=1.00D-06.
 Requested convergence on             energy=1.00D-06.
 No special actions if energy rises.
 Keep R1 ints in memory in canonical form, NReq=469379211.
 SCF Done:  E(RM062X) =  -158.410275747     A.U. after   10 cycles
             Convg  =    0.3433D-08             -V/T =  2.0063

 **********************************************************************

            Population analysis using the SCF density.

 **********************************************************************

 Orbital symmetries:
       Occupied  (A) (A) (A) (A) (A) (A) (A) (A) (A) (A) (A) (A)
                 (A) (A) (A) (A) (A)
       Virtual   (A) (A) (A) (A) (A) (A) (A) (A) (A) (A) (A) (A)
                 (A) (A) (A) (A) (A) (A) (A) (A) (A) (A) (A) (A)
                 (A) (A) (A) (A) (A) (A) (A) (A) (A) (A) (A) (A)
                 (A) (A) (A) (A) (A) (A) (A) (A) (A) (A) (A) (A)
                 (A) (A) (A) (A) (A) (A) (A) (A) (A) (A) (A) (A)
                 (A) (A) (A) (A) (A) (A) (A) (A) (A) (A) (A) (A)
                 (A) (A) (A) (A) (A) (A) (A) (A) (A) (A) (A) (A)
                 (A) (A) (A) (A) (A) (A) (A) (A) (A) (A) (A) (A)
                 (A) (A) (A) (A) (A) (A) (A) (A) (A) (A) (A) (A)
                 (A) (A) (A) (A) (A) (A) (A) (A) (A) (A) (A) (A)
                 (A) (A) (A) (A) (A) (A) (A) (A) (A) (A) (A) (A)
                 (A) (A) (A) (A) (A) (A) (A) (A) (A) (A) (A) (A)
                 (A) (A) (A) (A) (A) (A) (A) (A) (A) (A) (A) (A)
                 (A) (A) (A) (A) (A) (A) (A) (A) (A) (A) (A) (A)
                 (A) (A) (A) (A) (A) (A) (A) (A) (A) (A) (A) (A)
                 (A) (A) (A) (A) (A) (A) (A) (A) (A) (A) (A) (A)
                 (A) (A) (A) (A) (A) (A) (A) (A) (A) (A) (A) (A)
                 (A) (A) (A) (A) (A)
 The electronic state is 1-A.
 Alpha  occ. eigenvalues --  -10.53006 -10.52970 -10.52409 -10.52409  -0.89195
 Alpha  occ. eigenvalues --   -0.81389  -0.70661  -0.65080  -0.54094  -0.49177
 Alpha  occ. eigenvalues --   -0.47942  -0.47646  -0.42566  -0.40889  -0.38865
 Alpha  occ. eigenvalues --   -0.38290  -0.37248
 Alpha virt. eigenvalues --    0.02019   0.03065   0.03763   0.04160   0.05988
 Alpha virt. eigenvalues --    0.06979   0.07233   0.07953   0.08062   0.08813
 Alpha virt. eigenvalues --    0.10583   0.10983   0.12367   0.15448   0.16277
 Alpha virt. eigenvalues --    0.17843   0.18993   0.20863   0.21275   0.21695
 Alpha virt. eigenvalues --    0.22115   0.23739   0.24434   0.24534   0.28750
 Alpha virt. eigenvalues --    0.29161   0.29348   0.30761   0.31315   0.41134
 Alpha virt. eigenvalues --    0.42635   0.42775   0.43852   0.45302   0.47553
 Alpha virt. eigenvalues --    0.50141   0.50282   0.51071   0.53375   0.53810
 Alpha virt. eigenvalues --    0.55521   0.56978   0.58469   0.59921   0.61774
 Alpha virt. eigenvalues --    0.62978   0.63916   0.65163   0.66304   0.67839
 Alpha virt. eigenvalues --    0.68992   0.69362   0.71159   0.72660   0.78270
 Alpha virt. eigenvalues --    0.78499   0.80526   0.86152   0.86255   0.87556
 Alpha virt. eigenvalues --    0.88186   0.91114   0.94030   0.98369   1.00917
 Alpha virt. eigenvalues --    1.03276   1.11461   1.12096   1.12372   1.13225
 Alpha virt. eigenvalues --    1.14567   1.14888   1.17678   1.18591   1.21562
 Alpha virt. eigenvalues --    1.22453   1.23017   1.25261   1.25466   1.27866
 Alpha virt. eigenvalues --    1.29890   1.30283   1.31306   1.31469   1.39330
 Alpha virt. eigenvalues --    1.42487   1.42701   1.43126   1.44220   1.44450
 Alpha virt. eigenvalues --    1.45091   1.45567   1.48103   1.53408   1.55016
 Alpha virt. eigenvalues --    1.56757   1.59981   1.60136   1.61996   1.62027
 Alpha virt. eigenvalues --    1.62116   1.64342   1.69434   1.69487   1.73531
 Alpha virt. eigenvalues --    2.36346   2.46639   2.47570   2.48912   2.54500
 Alpha virt. eigenvalues --    2.57682   2.60494   2.65653   2.66976   2.76035
 Alpha virt. eigenvalues --    2.76228   2.79083   2.82085   2.82569   2.85094
 Alpha virt. eigenvalues --    2.90186   2.91767   2.91840   2.97987   2.99109
 Alpha virt. eigenvalues --    3.03168   3.03894   3.04762   3.12716   3.13428
 Alpha virt. eigenvalues --    3.15801   3.17002   3.18260   3.22312   3.27115
 Alpha virt. eigenvalues --    3.27565   3.29287   3.35325   3.35647   3.36521
 Alpha virt. eigenvalues --    3.36603   3.39360   3.40333   3.46189   3.52113
 Alpha virt. eigenvalues --    3.56902   3.59343   3.59446   3.61625   3.62113
 Alpha virt. eigenvalues --    3.66047   3.69209   3.71635   3.73766   3.78405
 Alpha virt. eigenvalues --    3.80064   3.81640   3.84930   3.87808   3.89726
 Alpha virt. eigenvalues --    3.94213   3.94854   3.95725   3.97694   3.98305
 Alpha virt. eigenvalues --    4.03689   4.06494   4.08922   4.10506   4.13573
 Alpha virt. eigenvalues --    4.16821   4.17121   4.17167   4.21339   4.22675
 Alpha virt. eigenvalues --    4.25178   4.25706   4.27392   4.35178   4.39018
 Alpha virt. eigenvalues --    4.40576   4.41191   4.42045   4.50069   4.50214
 Alpha virt. eigenvalues --    4.51374   4.54016   4.54082   4.55638   4.61327
 Alpha virt. eigenvalues --    4.65125   4.65470   4.76667   4.79402   4.99566
 Alpha virt. eigenvalues --    5.18392   5.35764   5.38735   5.44766   5.50599
 Alpha virt. eigenvalues --    5.51256   5.54513   5.57571   5.58230   5.60010
 Alpha virt. eigenvalues --   24.18736  24.30223  24.35652  24.42513
          Condensed to atoms (all electrons):
              1          2          3          4          5          6
     1  C    5.345111  -0.032449   0.041044   0.151249   0.456304   0.456317
     2  C   -0.032449   5.345133   0.151255   0.041006  -0.050789  -0.050787
     3  C    0.041044   0.151255   5.263488  -0.108508  -0.044948  -0.044942
     4  C    0.151249   0.041006  -0.108508   5.263557  -0.004094  -0.004090
     5  H    0.456304  -0.050789  -0.044948  -0.004094   0.536277  -0.034184
     6  H    0.456317  -0.050787  -0.044942  -0.004090  -0.034184   0.536212
     7  H   -0.050788   0.456320  -0.004091  -0.044951  -0.007237   0.005562
     8  H   -0.050786   0.456302  -0.004098  -0.044952   0.005564  -0.007237
     9  H   -0.002480  -0.027941   0.398982   0.002256  -0.008228   0.006247
    10  H   -0.002473  -0.027939   0.398978   0.002255   0.006247  -0.008227
    11  H   -0.053964   0.020627   0.412924   0.001159  -0.004993  -0.004994
    12  H   -0.027938  -0.002477   0.002254   0.398973   0.002339  -0.000603
    13  H   -0.027941  -0.002486   0.002255   0.398976  -0.000603   0.002338
    14  H    0.020623  -0.053945   0.001159   0.412921  -0.000048  -0.000048
              7          8          9         10         11         12
     1  C   -0.050788  -0.050786  -0.002480  -0.002473  -0.053964  -0.027938
     2  C    0.456320   0.456302  -0.027941  -0.027939   0.020627  -0.002477
     3  C   -0.004091  -0.004098   0.398982   0.398978   0.412924   0.002254
     4  C   -0.044951  -0.044952   0.002256   0.002255   0.001159   0.398973
     5  H   -0.007237   0.005564  -0.008228   0.006247  -0.004993   0.002339
     6  H    0.005562  -0.007237   0.006247  -0.008227  -0.004994  -0.000603
     7  H    0.536225  -0.034184   0.002337  -0.000602  -0.000048  -0.008229
     8  H   -0.034184   0.536287  -0.000603   0.002338  -0.000048   0.006248
     9  H    0.002337  -0.000603   0.557979  -0.034573  -0.024739   0.000000
    10  H   -0.000602   0.002338  -0.034573   0.557949  -0.024727  -0.000022
    11  H   -0.000048  -0.000048  -0.024739  -0.024727   0.549665  -0.000015
    12  H   -0.008229   0.006248   0.000000  -0.000022  -0.000015   0.557975
    13  H    0.006249  -0.008230  -0.000022   0.000000  -0.000015  -0.034580
    14  H   -0.004994  -0.004993  -0.000015  -0.000015   0.000017  -0.024723
             13         14
     1  C   -0.027941   0.020623
     2  C   -0.002486  -0.053945
     3  C    0.002255   0.001159
     4  C    0.398976   0.412921
     5  H   -0.000603  -0.000048
     6  H    0.002338  -0.000048
     7  H    0.006249  -0.004994
     8  H   -0.008230  -0.004993
     9  H   -0.000022  -0.000015
    10  H    0.000000  -0.000015
    11  H   -0.000015   0.000017
    12  H   -0.034580  -0.024723
    13  H    0.558015  -0.024737
    14  H   -0.024737   0.549627
 Mulliken atomic charges:
              1
     1  C   -0.221828
     2  C   -0.221830
     3  C   -0.465752
     4  C   -0.465755
     5  H    0.148393
     6  H    0.148436
     7  H    0.148432
     8  H    0.148391
     9  H    0.130800
    10  H    0.130812
    11  H    0.129151
    12  H    0.130798
    13  H    0.130781
    14  H    0.129170
 Sum of Mulliken atomic charges =   0.00000
 Mulliken charges with hydrogens summed into heavy atoms:
              1
     1  C    0.075001
     2  C    0.074993
     3  C   -0.074990
     4  C   -0.075005
 Sum of Mulliken charges with hydrogens summed into heavy atoms =   0.00000
 Electronic spatial extent (au):  <R**2>=            421.8609
 Charge=              0.0000 electrons
 Dipole moment (field-independent basis, Debye):
    X=              0.0000    Y=              0.0000    Z=              0.0000  Tot=              0.0000
 Quadrupole moment (field-independent basis, Debye-Ang):
   XX=            -30.0361   YY=            -28.9968   ZZ=            -28.0370
   XY=             -0.5193   XZ=              0.0000   YZ=              0.0000
 Traceless Quadrupole moment (field-independent basis, Debye-Ang):
   XX=             -1.0128   YY=              0.0265   ZZ=              0.9863
   XY=             -0.5193   XZ=              0.0000   YZ=              0.0000
 Octapole moment (field-independent basis, Debye-Ang**2):
  XXX=              0.0012  YYY=             -0.0001  ZZZ=              0.0000  XYY=              0.0000
  XXY=             -0.0006  XXZ=              0.0000  XZZ=             -0.0005  YZZ=             -0.0002
  YYZ=              0.0000  XYZ=             -0.0001
 Hexadecapole moment (field-independent basis, Debye-Ang**3):
 XXXX=           -462.7797 YYYY=            -95.9179 ZZZZ=            -61.0462 XXXY=             -8.6311
 XXXZ=              0.0024 YYYX=             -2.0682 YYYZ=              0.0003 ZZZX=             -0.0004
 ZZZY=              0.0005 XXYY=            -88.3822 XXZZ=            -85.1870 YYZZ=            -23.1054
 XXYZ=             -0.0010 YYXZ=             -0.0008 ZZXY=              2.0971
 N-N= 1.303795036887D+02 E-N=-6.266961461541D+02  KE= 1.574191656986D+02
 Calling FoFJK, ICntrl=      2127 FMM=F ISym2X=0 I1Cent= 0 IOpClX= 0 NMat=1 NMatS=1 NMatT=0.
 ***** Axes restored to original set *****
 -------------------------------------------------------------------
 Center     Atomic                   Forces (Hartrees/Bohr)
 Number     Number              X              Y              Z
 -------------------------------------------------------------------
      1        6          -0.001038686    0.000105510    0.001383675
      2        6           0.001032197   -0.000105075   -0.001365752
      3        6          -0.009176688   -0.000072207   -0.001919997
      4        6           0.009170932    0.000072761    0.001822006
      5        1           0.001700719    0.011707336    0.003765737
      6        1           0.001304550   -0.010663019    0.006108599
      7        1          -0.001308344    0.010663418   -0.006106678
      8        1          -0.001703558   -0.011707235   -0.003764291
      9        1          -0.000289911    0.010876013   -0.007262681
     10        1          -0.000718172   -0.012113285   -0.004811597
     11        1           0.006639193    0.001102801    0.011437565
     12        1           0.000717287    0.012131362    0.004831092
     13        1           0.000287812   -0.010897264    0.007290583
     14        1          -0.006617330   -0.001101113   -0.011408262
 -------------------------------------------------------------------
 Cartesian Forces:  Max     0.012131362 RMS     0.006602245

 GradGradGradGradGradGradGradGradGradGradGradGradGradGradGradGradGradGrad
 Berny optimization.
 Internal  Forces:  Max     0.012917619 RMS     0.005341529
 Search for a local minimum.
 Step number   1 out of a maximum of   74
 All quantities printed in internal units (Hartrees-Bohrs-Radians)
 Swaping is turned off.
 Second derivative matrix not updated -- first step.
 ITU=  0
     Eigenvalues ---    0.00335   0.00424   0.00425   0.03753   0.03754
     Eigenvalues ---    0.04926   0.04926   0.05672   0.05673   0.05790
     Eigenvalues ---    0.05790   0.08034   0.08035   0.11974   0.11974
     Eigenvalues ---    0.16000   0.16000   0.16000   0.16000   0.16000
     Eigenvalues ---    0.16000   0.21949   0.21949   0.29186   0.29809
     Eigenvalues ---    0.29814   0.32390   0.32390   0.32401   0.32401
     Eigenvalues ---    0.32498   0.32505   0.32506   0.32511   0.32551
     Eigenvalues ---    0.32558
 Angle between quadratic step and forces=  35.58 degrees.
 Linear search not attempted -- option 19 set.
 Iteration  1 RMS(Cart)=  0.02816193 RMS(Int)=  0.00043514
 Iteration  2 RMS(Cart)=  0.00053279 RMS(Int)=  0.00024535
 Iteration  3 RMS(Cart)=  0.00000012 RMS(Int)=  0.00024535
 Variable       Old X    -DE/DX   Delta X   Delta X   Delta X     New X
                                 (Linear)    (Quad)   (Total)
    R1        2.89617  -0.00442   0.00000  -0.01513  -0.01513   2.88104
    R2        2.88345   0.00187   0.00000   0.00627   0.00627   2.88972
    R3        2.10136  -0.01197   0.00000  -0.03695  -0.03695   2.06441
    R4        2.10116  -0.01191   0.00000  -0.03675  -0.03675   2.06440
    R5        2.88336   0.00189   0.00000   0.00634   0.00634   2.88971
    R6        2.10116  -0.01191   0.00000  -0.03675  -0.03675   2.06441
    R7        2.10136  -0.01197   0.00000  -0.03695  -0.03695   2.06442
    R8        2.09929  -0.01288   0.00000  -0.03963  -0.03963   2.05966
    R9        2.09919  -0.01285   0.00000  -0.03954  -0.03954   2.05965
   R10        2.09847  -0.01260   0.00000  -0.03872  -0.03872   2.05975
   R11        2.09928  -0.01288   0.00000  -0.03962  -0.03962   2.05966
   R12        2.09942  -0.01292   0.00000  -0.03975  -0.03975   2.05967
   R13        2.09834  -0.01257   0.00000  -0.03860  -0.03860   2.05974
    A1        1.93994   0.00540   0.00000   0.03395   0.03372   1.97365
    A2        1.91483  -0.00231   0.00000  -0.01473  -0.01533   1.89950
    A3        1.91493  -0.00232   0.00000  -0.01482  -0.01542   1.89951
    A4        1.90008  -0.00012   0.00000   0.01382   0.01392   1.91400
    A5        1.90009  -0.00012   0.00000   0.01383   0.01393   1.91401
    A6        1.89326  -0.00063   0.00000  -0.03328  -0.03366   1.85960
    A7        1.93999   0.00539   0.00000   0.03390   0.03367   1.97366
    A8        1.91493  -0.00232   0.00000  -0.01483  -0.01543   1.89950
    A9        1.91483  -0.00231   0.00000  -0.01474  -0.01534   1.89949
   A10        1.90005  -0.00011   0.00000   0.01387   0.01397   1.91402
   A11        1.90006  -0.00012   0.00000   0.01385   0.01395   1.91401
   A12        1.89326  -0.00063   0.00000  -0.03328  -0.03367   1.85959
   A13        1.92560   0.00156   0.00000   0.00728   0.00712   1.93272
   A14        1.92559   0.00157   0.00000   0.00729   0.00713   1.93272
   A15        1.91215   0.00551   0.00000   0.03936   0.03902   1.95117
   A16        1.90762  -0.00269   0.00000  -0.02628  -0.02624   1.88138
   A17        1.89611  -0.00305   0.00000  -0.01416  -0.01449   1.88162
   A18        1.89628  -0.00306   0.00000  -0.01428  -0.01461   1.88167
   A19        1.92559   0.00157   0.00000   0.00730   0.00714   1.93273
   A20        1.92559   0.00156   0.00000   0.00730   0.00714   1.93273
   A21        1.91227   0.00550   0.00000   0.03926   0.03892   1.95119
   A22        1.90748  -0.00269   0.00000  -0.02619  -0.02615   1.88132
   A23        1.89630  -0.00305   0.00000  -0.01430  -0.01462   1.88167
   A24        1.89611  -0.00304   0.00000  -0.01416  -0.01449   1.88162
    D1        3.14159   0.00000   0.00000   0.00001   0.00001  -3.14159
    D2        1.03912  -0.00179   0.00000  -0.02936  -0.02913   1.00999
    D3       -1.03919   0.00179   0.00000   0.02941   0.02918  -1.01002
    D4        1.03918  -0.00179   0.00000  -0.02939  -0.02916   1.01003
    D5       -1.06328  -0.00359   0.00000  -0.05876  -0.05829  -1.12157
    D6        3.14159   0.00000   0.00000   0.00001   0.00001  -3.14158
    D7       -1.03913   0.00179   0.00000   0.02936   0.02912  -1.01000
    D8        3.14159   0.00000   0.00000  -0.00001  -0.00001   3.14158
    D9        1.06328   0.00359   0.00000   0.05876   0.05829   1.12157
   D10       -1.05479   0.00066   0.00000   0.01166   0.01175  -1.04304
   D11        1.05480  -0.00066   0.00000  -0.01169  -0.01178   1.04302
   D12       -3.14149   0.00000   0.00000  -0.00008  -0.00009  -3.14157
   D13        1.05630   0.00111   0.00000   0.02381   0.02409   1.08039
   D14       -3.11729  -0.00022   0.00000   0.00046   0.00055  -3.11674
   D15       -1.03039   0.00044   0.00000   0.01207   0.01225  -1.01814
   D16        3.11718   0.00022   0.00000  -0.00039  -0.00048   3.11670
   D17       -1.05642  -0.00110   0.00000  -0.02374  -0.02402  -1.08043
   D18        1.03048  -0.00045   0.00000  -0.01213  -0.01232   1.01816
   D19       -1.05470   0.00066   0.00000   0.01162   0.01171  -1.04299
   D20        1.05471  -0.00066   0.00000  -0.01160  -0.01170   1.04301
   D21        3.14148   0.00001   0.00000   0.00009   0.00009   3.14157
   D22        1.05653   0.00110   0.00000   0.02365   0.02393   1.08046
   D23       -3.11725  -0.00022   0.00000   0.00043   0.00052  -3.11673
   D24       -1.03048   0.00044   0.00000   0.01212   0.01231  -1.01817
   D25        3.11737   0.00021   0.00000  -0.00051  -0.00060   3.11677
   D26       -1.05641  -0.00110   0.00000  -0.02374  -0.02401  -1.08042
   D27        1.03036  -0.00044   0.00000  -0.01204  -0.01223   1.01814
         Item               Value     Threshold  Converged?
 Maximum Force            0.012918     0.000002     NO 
 RMS     Force            0.005342     0.000001     NO 
 Maximum Displacement     0.056351     0.000006     NO 
 RMS     Displacement     0.028004     0.000004     NO 
 Predicted change in Energy=-3.487569D-03
 GradGradGradGradGradGradGradGradGradGradGradGradGradGradGradGradGradGrad

                          Input orientation:                          
 ---------------------------------------------------------------------
 Center     Atomic      Atomic             Coordinates (Angstroms)
 Number     Number       Type             X           Y           Z
 ---------------------------------------------------------------------
      1          6           0       -0.590626   -0.040266   -0.342730
      2          6           0        0.590626    0.040263    0.617741
      3          6           0       -1.944120    0.059057    0.361947
      4          6           0        1.944121   -0.059056   -0.086915
      5          1           0       -0.532144   -0.980664   -0.895594
      6          1           0       -0.500582    0.760451   -1.080402
      7          1           0        0.500567   -0.760451    1.355417
      8          1           0        0.532129    0.980660    1.170609
      9          1           0       -2.062854   -0.747762    1.085052
     10          1           0       -2.031107    1.003359    0.899214
     11          1           0       -2.772937   -0.000803   -0.343401
     12          1           0        2.031120   -1.003344   -0.624212
     13          1           0        2.062863    0.747745   -0.810047
     14          1           0        2.772944    0.000810    0.618419
 ---------------------------------------------------------------------
                    Distance matrix (angstroms):
                    1          2          3          4          5
     1  C    0.000000
     2  C    1.524581   0.000000
     3  C    1.529176   2.547690   0.000000
     4  C    2.547692   1.529167   3.915845   0.000000
     5  H    1.092441   2.143149   2.157801   2.763188   0.000000
     6  H    1.092436   2.143151   2.157806   2.763183   1.751179
     7  H    2.143146   1.092438   2.763164   2.157806   2.486370
     8  H    2.143143   1.092442   2.763167   2.157799   3.041160
     9  H    2.169463   2.807191   1.089925   4.231273   2.514016
    10  H    2.169461   2.807181   1.089921   4.231266   3.066688
    11  H    2.182667   3.498433   1.089970   4.724384   2.507229
    12  H    2.807188   2.169467   4.231281   1.089925   2.577689
    13  H    2.807196   2.169468   4.231285   1.089930   3.119098
    14  H    3.498442   2.182675   4.724390   1.089967   3.765518
                    6          7          8          9         10
     6  H    0.000000
     7  H    3.041161   0.000000
     8  H    2.486370   1.751176   0.000000
     9  H    3.066691   2.577671   3.119086   0.000000
    10  H    2.514039   3.119058   2.577663   1.761240   0.000000
    11  H    2.507244   3.765485   3.765495   1.761432   1.761460
    12  H    3.119070   2.514065   3.066697   4.443820   4.780102
    13  H    2.577694   3.066702   2.514039   4.780113   4.443816
    14  H    3.765504   2.507266   2.507244   4.915593   4.915573
                   11         12         13         14
    11  H    0.000000
    12  H    4.915578   0.000000
    13  H    4.915591   1.761209   0.000000
    14  H    5.628667   1.761465   1.761432   0.000000
 Stoichiometry    C4H10
 Framework group  C1[X(C4H10)]
 Deg. of freedom    36
 Full point group                 C1      NOp   1
 Largest Abelian subgroup         C1      NOp   1
 Largest concise Abelian subgroup C1      NOp   1
                         Standard orientation:                         
 ---------------------------------------------------------------------
 Center     Atomic      Atomic             Coordinates (Angstroms)
 Number     Number       Type             X           Y           Z
 ---------------------------------------------------------------------
      1          6           0        0.562564    0.514405   -0.000006
      2          6           0       -0.562564   -0.514398    0.000007
      3          6           0        1.954290   -0.119217   -0.000005
      4          6           0       -1.954290    0.119204    0.000005
      5          1           0        0.451750    1.158208    0.875588
      6          1           0        0.451740    1.158209   -0.875591
      7          1           0       -0.451725   -1.158205    0.875591
      8          1           0       -0.451735   -1.158204   -0.875585
      9          1           0        2.092818   -0.746299    0.880628
     10          1           0        2.092805   -0.746332   -0.880612
     11          1           0        2.741941    0.634203    0.000006
     12          1           0       -2.092818    0.746346    0.880596
     13          1           0       -2.092827    0.746314   -0.880613
     14          1           0       -2.741948   -0.634204   -0.000014
 ---------------------------------------------------------------------
 Rotational constants (GHZ):     23.6505996      3.6329046      3.4136505
 Standard basis: 6-311+G(2df,2p) (5D, 7F)
 There are   226 symmetry adapted basis functions of A   symmetry.
 Integral buffers will be    131072 words long.
 Raffenetti 2 integral format.
 Two-electron integral symmetry is turned on.
   226 basis functions,   318 primitive gaussians,   246 cartesian basis functions
    17 alpha electrons       17 beta electrons
       nuclear repulsion energy       130.7949205954 Hartrees.
 NAtoms=   14 NActive=   14 NUniq=   14 SFac= 1.00D+00 NAtFMM=   50 NAOKFM=F Big=F
 One-electron integrals computed using PRISM.
 NBasis=   226 RedAO= T  NBF=   226
 NBsUse=   226 1.00D-06 NBFU=   226
 Initial guess read from the read-write file.
 B after Tr=     0.000000    0.000000    0.000000
         Rot=    1.000000    0.000000    0.000000    0.000000 Ang=   0.00 deg.
 Initial guess orbital symmetries:
       Occupied  (A) (A) (A) (A) (A) (A) (A) (A) (A) (A) (A) (A)
                 (A) (A) (A) (A) (A)
       Virtual   (A) (A) (A) (A) (A) (A) (A) (A) (A) (A) (A) (A)
                 (A) (A) (A) (A) (A) (A) (A) (A) (A) (A) (A) (A)
                 (A) (A) (A) (A) (A) (A) (A) (A) (A) (A) (A) (A)
                 (A) (A) (A) (A) (A) (A) (A) (A) (A) (A) (A) (A)
                 (A) (A) (A) (A) (A) (A) (A) (A) (A) (A) (A) (A)
                 (A) (A) (A) (A) (A) (A) (A) (A) (A) (A) (A) (A)
                 (A) (A) (A) (A) (A) (A) (A) (A) (A) (A) (A) (A)
                 (A) (A) (A) (A) (A) (A) (A) (A) (A) (A) (A) (A)
                 (A) (A) (A) (A) (A) (A) (A) (A) (A) (A) (A) (A)
                 (A) (A) (A) (A) (A) (A) (A) (A) (A) (A) (A) (A)
                 (A) (A) (A) (A) (A) (A) (A) (A) (A) (A) (A) (A)
                 (A) (A) (A) (A) (A) (A) (A) (A) (A) (A) (A) (A)
                 (A) (A) (A) (A) (A) (A) (A) (A) (A) (A) (A) (A)
                 (A) (A) (A) (A) (A) (A) (A) (A) (A) (A) (A) (A)
                 (A) (A) (A) (A) (A) (A) (A) (A) (A) (A) (A) (A)
                 (A) (A) (A) (A) (A) (A) (A) (A) (A) (A) (A) (A)
                 (A) (A) (A) (A) (A) (A) (A) (A) (A) (A) (A) (A)
                 (A) (A) (A) (A) (A)
 Harris functional with IExCor= 1009 diagonalized for initial guess.
 ExpMin= 4.38D-02 ExpMax= 4.56D+03 ExpMxC= 6.82D+02 IAcc=2 IRadAn=         0 AccDes= 0.00D+00
 HarFok:  IExCor= 1009 AccDes= 0.00D+00 IRadAn=         0 IDoV= 1
 ScaDFX=  1.000000  1.000000  1.000000  1.000000
 FoFCou: FMM=F IPFlag=           0 FMFlag=      100000 FMFlg1=           0
         NFxFlg=           0 DoJE=T BraDBF=F KetDBF=T FulRan=T
         Omega=  0.000000  0.000000  1.000000  0.000000  0.000000 ICntrl=     500 IOpCl=  0
         NMat0=    1 NMatS0=    1 NMatT0=    0 NMatD0=    1 NMtDS0=    0 NMtDT0=    0
         I1Cent=           4 NGrid=           0.
 Petite list used in FoFCou.
 Requested convergence on RMS density matrix=1.00D-08 within 128 cycles.
 Requested convergence on MAX density matrix=1.00D-06.
 Requested convergence on             energy=1.00D-06.
 No special actions if energy rises.
 Keep R1 ints in memory in canonical form, NReq=469379211.
 SCF Done:  E(RM062X) =  -158.413583322     A.U. after   11 cycles
             Convg  =    0.4151D-08             -V/T =  2.0047
 Calling FoFJK, ICntrl=      2127 FMM=F ISym2X=0 I1Cent= 0 IOpClX= 0 NMat=1 NMatS=1 NMatT=0.
 ***** Axes restored to original set *****
 -------------------------------------------------------------------
 Center     Atomic                   Forces (Hartrees/Bohr)
 Number     Number              X              Y              Z
 -------------------------------------------------------------------
      1        6          -0.001089543    0.000081913    0.000627089
      2        6           0.001086014   -0.000081640   -0.000623596
      3        6           0.002742654   -0.000215397   -0.001523603
      4        6          -0.002739297    0.000214997    0.001510769
      5        1          -0.000336706   -0.000274962   -0.000859177
      6        1          -0.000329693    0.000103082   -0.000900293
      7        1           0.000330721   -0.000102673    0.000899327
      8        1           0.000337564    0.000274577    0.000858526
      9        1          -0.000022679   -0.000331323    0.000644554
     10        1          -0.000011005    0.000461581    0.000559584
     11        1           0.000570047   -0.000021984   -0.000134801
     12        1           0.000010122   -0.000462149   -0.000555048
     13        1           0.000021356    0.000332295   -0.000640190
     14        1          -0.000569556    0.000021682    0.000136858
 -------------------------------------------------------------------
 Cartesian Forces:  Max     0.002742654 RMS     0.000836350

 GradGradGradGradGradGradGradGradGradGradGradGradGradGradGradGradGradGrad
 Berny optimization.
 Using GDIIS optimizer.
 Internal  Forces:  Max     0.003138320 RMS     0.000774825
 Search for a local minimum.
 Step number   2 out of a maximum of   74
 All quantities printed in internal units (Hartrees-Bohrs-Radians)
 Swaping is turned off.
 Update second derivatives using D2CorX and points    1    2
 DE= -3.31D-03 DEPred=-3.49D-03 R= 9.48D-01
 SS=  1.41D+00  RLast= 2.01D-01 DXNew= 5.0454D-01 6.0292D-01
 Trust test= 9.48D-01 RLast= 2.01D-01 DXMaxT set to 5.05D-01
 ITU=  1  0
     Eigenvalues ---    0.00335   0.00424   0.00425   0.03505   0.03505
     Eigenvalues ---    0.04768   0.04836   0.05485   0.05485   0.05596
     Eigenvalues ---    0.05606   0.08414   0.08464   0.12260   0.12260
     Eigenvalues ---    0.15914   0.16000   0.16000   0.16000   0.16000
     Eigenvalues ---    0.16178   0.21917   0.22504   0.28740   0.29331
     Eigenvalues ---    0.29812   0.32379   0.32390   0.32396   0.32401
     Eigenvalues ---    0.32453   0.32500   0.32505   0.32509   0.32555
     Eigenvalues ---    0.34852
 DIIS coeff's:      0.94210      0.05790
 Cosine:  1.000 >  0.970
 Length:  1.000
 GDIIS step was calculated using  2 of the last  2 vectors.
 Iteration  1 RMS(Cart)=  0.00717851 RMS(Int)=  0.00001484
 Iteration  2 RMS(Cart)=  0.00000865 RMS(Int)=  0.00001142
 Iteration  3 RMS(Cart)=  0.00000000 RMS(Int)=  0.00001142
 Variable       Old X    -DE/DX   Delta X   Delta X   Delta X     New X
                                  (DIIS)     (GDIIS)  (Total)
    R1        2.88104  -0.00013   0.00088  -0.00154  -0.00066   2.88038
    R2        2.88972  -0.00314  -0.00036  -0.00946  -0.00982   2.87991
    R3        2.06441   0.00066   0.00214  -0.00082   0.00132   2.06573
    R4        2.06440   0.00066   0.00213  -0.00080   0.00133   2.06573
    R5        2.88971  -0.00314  -0.00037  -0.00944  -0.00981   2.87990
    R6        2.06441   0.00066   0.00213  -0.00080   0.00133   2.06573
    R7        2.06442   0.00066   0.00214  -0.00082   0.00132   2.06573
    R8        2.05966   0.00067   0.00229  -0.00099   0.00130   2.06096
    R9        2.05965   0.00067   0.00229  -0.00098   0.00131   2.06096
   R10        2.05975  -0.00033   0.00224  -0.00383  -0.00159   2.05816
   R11        2.05966   0.00067   0.00229  -0.00099   0.00130   2.06096
   R12        2.05967   0.00067   0.00230  -0.00101   0.00129   2.06096
   R13        2.05974  -0.00033   0.00224  -0.00382  -0.00158   2.05816
    A1        1.97365  -0.00201  -0.00195  -0.00576  -0.00769   1.96596
    A2        1.89950   0.00093   0.00089   0.00486   0.00577   1.90527
    A3        1.89951   0.00093   0.00089   0.00484   0.00576   1.90527
    A4        1.91400   0.00041  -0.00081   0.00123   0.00043   1.91443
    A5        1.91401   0.00041  -0.00081   0.00122   0.00042   1.91443
    A6        1.85960  -0.00060   0.00195  -0.00642  -0.00446   1.85514
    A7        1.97366  -0.00201  -0.00195  -0.00577  -0.00769   1.96597
    A8        1.89950   0.00094   0.00089   0.00485   0.00577   1.90527
    A9        1.89949   0.00094   0.00089   0.00486   0.00578   1.90527
   A10        1.91402   0.00041  -0.00081   0.00121   0.00041   1.91443
   A11        1.91401   0.00041  -0.00081   0.00122   0.00042   1.91443
   A12        1.85959  -0.00060   0.00195  -0.00641  -0.00446   1.85513
   A13        1.93272   0.00017  -0.00041   0.00147   0.00107   1.93378
   A14        1.93272   0.00018  -0.00041   0.00147   0.00107   1.93379
   A15        1.95117  -0.00070  -0.00226  -0.00110  -0.00334   1.94783
   A16        1.88138  -0.00022   0.00152  -0.00353  -0.00202   1.87936
   A17        1.88162   0.00029   0.00084   0.00080   0.00166   1.88328
   A18        1.88167   0.00029   0.00085   0.00076   0.00162   1.88329
   A19        1.93273   0.00017  -0.00041   0.00146   0.00106   1.93379
   A20        1.93273   0.00017  -0.00041   0.00146   0.00106   1.93379
   A21        1.95119  -0.00070  -0.00225  -0.00112  -0.00336   1.94784
   A22        1.88132  -0.00021   0.00151  -0.00349  -0.00197   1.87935
   A23        1.88167   0.00029   0.00085   0.00075   0.00162   1.88329
   A24        1.88162   0.00030   0.00084   0.00080   0.00166   1.88328
    D1       -3.14159   0.00000   0.00000   0.00000   0.00000   3.14159
    D2        1.00999   0.00015   0.00169  -0.00116   0.00052   1.01052
    D3       -1.01002  -0.00015  -0.00169   0.00118  -0.00050  -1.01052
    D4        1.01003   0.00015   0.00169  -0.00119   0.00049   1.01052
    D5       -1.12157   0.00030   0.00337  -0.00235   0.00102  -1.12056
    D6       -3.14158   0.00000   0.00000  -0.00001  -0.00001  -3.14159
    D7       -1.01000  -0.00015  -0.00169   0.00117  -0.00052  -1.01052
    D8        3.14158   0.00000   0.00000   0.00001   0.00001   3.14159
    D9        1.12157  -0.00030  -0.00337   0.00235  -0.00102   1.12056
   D10       -1.04304   0.00002  -0.00068   0.00126   0.00057  -1.04247
   D11        1.04302  -0.00002   0.00068  -0.00125  -0.00057   1.04245
   D12       -3.14157   0.00000   0.00000  -0.00003  -0.00002   3.14159
   D13        1.08039   0.00015  -0.00139   0.00445   0.00304   1.08343
   D14       -3.11674   0.00011  -0.00003   0.00193   0.00190  -3.11484
   D15       -1.01814   0.00013  -0.00071   0.00316   0.00244  -1.01570
   D16        3.11670  -0.00010   0.00003  -0.00190  -0.00187   3.11483
   D17       -1.08043  -0.00015   0.00139  -0.00442  -0.00301  -1.08344
   D18        1.01816  -0.00013   0.00071  -0.00319  -0.00247   1.01570
   D19       -1.04299   0.00002  -0.00068   0.00123   0.00054  -1.04244
   D20        1.04301  -0.00002   0.00068  -0.00123  -0.00055   1.04246
   D21        3.14157   0.00000  -0.00001   0.00003   0.00003   3.14159
   D22        1.08046   0.00015  -0.00139   0.00439   0.00299   1.08345
   D23       -3.11673   0.00011  -0.00003   0.00192   0.00189  -3.11483
   D24       -1.01817   0.00013  -0.00071   0.00319   0.00247  -1.01570
   D25        3.11677  -0.00011   0.00003  -0.00196  -0.00192   3.11485
   D26       -1.08042  -0.00015   0.00139  -0.00442  -0.00302  -1.08344
   D27        1.01814  -0.00013   0.00071  -0.00316  -0.00244   1.01570
         Item               Value     Threshold  Converged?
 Maximum Force            0.003138     0.000002     NO 
 RMS     Force            0.000775     0.000001     NO 
 Maximum Displacement     0.019088     0.000006     NO 
 RMS     Displacement     0.007179     0.000004     NO 
 Predicted change in Energy=-7.059420D-05
 GradGradGradGradGradGradGradGradGradGradGradGradGradGradGradGradGradGrad

                          Input orientation:                          
 ---------------------------------------------------------------------
 Center     Atomic      Atomic             Coordinates (Angstroms)
 Number     Number       Type             X           Y           Z
 ---------------------------------------------------------------------
      1          6           0       -0.588139   -0.040606   -0.345467
      2          6           0        0.588139    0.040605    0.620479
      3          6           0       -1.935031    0.058743    0.360598
      4          6           0        1.935031   -0.058743   -0.085579
      5          1           0       -0.532002   -0.980341   -0.901073
      6          1           0       -0.500481    0.758985   -1.085685
      7          1           0        0.500476   -0.758984    1.360699
      8          1           0        0.531997    0.980340    1.176087
      9          1           0       -2.052859   -0.747841    1.085150
     10          1           0       -2.021126    1.003096    0.899319
     11          1           0       -2.762842   -0.001108   -0.344634
     12          1           0        2.021131   -1.003093   -0.624306
     13          1           0        2.052863    0.747836   -0.810138
     14          1           0        2.762843    0.001111    0.619651
 ---------------------------------------------------------------------
                    Distance matrix (angstroms):
                    1          2          3          4          5
     1  C    0.000000
     2  C    1.524230   0.000000
     3  C    1.523981   2.536583   0.000000
     4  C    2.536583   1.523977   3.897468   0.000000
     5  H    1.093138   2.147596   2.154066   2.756923   0.000000
     6  H    1.093139   2.147594   2.154067   2.756921   1.749380
     7  H    2.147592   1.093139   2.756914   2.154067   2.496121
     8  H    2.147594   1.093139   2.756917   2.154065   3.048107
     9  H    2.166161   2.795074   1.090613   4.212924   2.512398
    10  H    2.166162   2.795068   1.090613   4.212921   3.064788
    11  H    2.175062   3.487442   1.089130   4.705363   2.499033
    12  H    2.795071   2.166163   4.212926   1.090613   2.568191
    13  H    2.795075   2.166161   4.212928   1.090614   3.110689
    14  H    3.487445   2.175063   4.705364   1.089130   3.759236
                    6          7          8          9         10
     6  H    0.000000
     7  H    3.048105   0.000000
     8  H    2.496121   1.749378   0.000000
     9  H    3.064788   2.568185   3.110685   0.000000
    10  H    2.512407   3.110671   2.568181   1.761057   0.000000
    11  H    2.499034   3.759226   3.759228   1.762375   1.762381
    12  H    3.110679   2.512414   3.064790   4.425470   4.762989
    13  H    2.568193   3.064791   2.512405   4.762994   4.425470
    14  H    3.759233   2.499041   2.499037   4.895775   4.895769
                   11         12         13         14
    11  H    0.000000
    12  H    4.895772   0.000000
    13  H    4.895776   1.761049   0.000000
    14  H    5.609193   1.762382   1.762375   0.000000
 Stoichiometry    C4H10
 Framework group  C1[X(C4H10)]
 Deg. of freedom    36
 Full point group                 C1      NOp   1
 Largest Abelian subgroup         C1      NOp   1
 Largest concise Abelian subgroup C1      NOp   1
                         Standard orientation:                         
 ---------------------------------------------------------------------
 Center     Atomic      Atomic             Coordinates (Angstroms)
 Number     Number       Type             X           Y           Z
 ---------------------------------------------------------------------
      1          6           0        0.560345    0.516560   -0.000001
      2          6           0       -0.560345   -0.516557    0.000001
      3          6           0        1.945039   -0.119943   -0.000001
      4          6           0       -1.945039    0.119939    0.000001
      5          1           0        0.452267    1.163237    0.874687
      6          1           0        0.452264    1.163233   -0.874693
      7          1           0       -0.452258   -1.163231    0.874691
      8          1           0       -0.452263   -1.163235   -0.874687
      9          1           0        2.082236   -0.748650    0.880534
     10          1           0        2.082230   -0.748668   -0.880523
     11          1           0        2.732305    0.632663   -0.000005
     12          1           0       -2.082236    0.748669    0.880520
     13          1           0       -2.082240    0.748654   -0.880529
     14          1           0       -2.732307   -0.632666    0.000002
 ---------------------------------------------------------------------
 Rotational constants (GHZ):     23.5318548      3.6649141      3.4390466
 Standard basis: 6-311+G(2df,2p) (5D, 7F)
 There are   226 symmetry adapted basis functions of A   symmetry.
 Integral buffers will be    131072 words long.
 Raffenetti 2 integral format.
 Two-electron integral symmetry is turned on.
   226 basis functions,   318 primitive gaussians,   246 cartesian basis functions
    17 alpha electrons       17 beta electrons
       nuclear repulsion energy       131.0431283713 Hartrees.
 NAtoms=   14 NActive=   14 NUniq=   14 SFac= 1.00D+00 NAtFMM=   50 NAOKFM=F Big=F
 One-electron integrals computed using PRISM.
 NBasis=   226 RedAO= T  NBF=   226
 NBsUse=   226 1.00D-06 NBFU=   226
 Initial guess read from the read-write file.
 B after Tr=     0.000000    0.000000    0.000000
         Rot=    1.000000    0.000000    0.000000    0.000000 Ang=   0.00 deg.
 Initial guess orbital symmetries:
       Occupied  (A) (A) (A) (A) (A) (A) (A) (A) (A) (A) (A) (A)
                 (A) (A) (A) (A) (A)
       Virtual   (A) (A) (A) (A) (A) (A) (A) (A) (A) (A) (A) (A)
                 (A) (A) (A) (A) (A) (A) (A) (A) (A) (A) (A) (A)
                 (A) (A) (A) (A) (A) (A) (A) (A) (A) (A) (A) (A)
                 (A) (A) (A) (A) (A) (A) (A) (A) (A) (A) (A) (A)
                 (A) (A) (A) (A) (A) (A) (A) (A) (A) (A) (A) (A)
                 (A) (A) (A) (A) (A) (A) (A) (A) (A) (A) (A) (A)
                 (A) (A) (A) (A) (A) (A) (A) (A) (A) (A) (A) (A)
                 (A) (A) (A) (A) (A) (A) (A) (A) (A) (A) (A) (A)
                 (A) (A) (A) (A) (A) (A) (A) (A) (A) (A) (A) (A)
                 (A) (A) (A) (A) (A) (A) (A) (A) (A) (A) (A) (A)
                 (A) (A) (A) (A) (A) (A) (A) (A) (A) (A) (A) (A)
                 (A) (A) (A) (A) (A) (A) (A) (A) (A) (A) (A) (A)
                 (A) (A) (A) (A) (A) (A) (A) (A) (A) (A) (A) (A)
                 (A) (A) (A) (A) (A) (A) (A) (A) (A) (A) (A) (A)
                 (A) (A) (A) (A) (A) (A) (A) (A) (A) (A) (A) (A)
                 (A) (A) (A) (A) (A) (A) (A) (A) (A) (A) (A) (A)
                 (A) (A) (A) (A) (A) (A) (A) (A) (A) (A) (A) (A)
                 (A) (A) (A) (A) (A)
 Requested convergence on RMS density matrix=1.00D-08 within 128 cycles.
 Requested convergence on MAX density matrix=1.00D-06.
 Requested convergence on             energy=1.00D-06.
 No special actions if energy rises.
 Keep R1 ints in memory in canonical form, NReq=469379211.
 SCF Done:  E(RM062X) =  -158.413649932     A.U. after    7 cycles
             Convg  =    0.6309D-08             -V/T =  2.0046
 Calling FoFJK, ICntrl=      2127 FMM=F ISym2X=0 I1Cent= 0 IOpClX= 0 NMat=1 NMatS=1 NMatT=0.
 ***** Axes restored to original set *****
 -------------------------------------------------------------------
 Center     Atomic                   Forces (Hartrees/Bohr)
 Number     Number              X              Y              Z
 -------------------------------------------------------------------
      1        6          -0.000356751    0.000091817    0.000798391
      2        6           0.000355049   -0.000091680   -0.000797209
      3        6           0.000321037   -0.000055179   -0.000455416
      4        6          -0.000318901    0.000055040    0.000452612
      5        1           0.000129414   -0.000149723   -0.000176684
      6        1           0.000133741    0.000104394   -0.000203590
      7        1          -0.000133379   -0.000104399    0.000203346
      8        1          -0.000129084    0.000149676    0.000176450
      9        1          -0.000072842   -0.000122475    0.000241768
     10        1          -0.000067907    0.000173409    0.000210118
     11        1          -0.000345532    0.000002311   -0.000042342
     12        1           0.000067590   -0.000173723   -0.000209036
     13        1           0.000072459    0.000122951   -0.000240834
     14        1           0.000345107   -0.000002418    0.000042425
 -------------------------------------------------------------------
 Cartesian Forces:  Max     0.000798391 RMS     0.000267421

 GradGradGradGradGradGradGradGradGradGradGradGradGradGradGradGradGradGrad
 Berny optimization.
 Using GDIIS optimizer.
 Internal  Forces:  Max     0.000300700 RMS     0.000135609
 Search for a local minimum.
 Step number   3 out of a maximum of   74
 All quantities printed in internal units (Hartrees-Bohrs-Radians)
 Swaping is turned off.
 Update second derivatives using D2CorX and points    1    2    3
 DE= -6.66D-05 DEPred=-7.06D-05 R= 9.44D-01
 SS=  1.41D+00  RLast= 2.51D-02 DXNew= 8.4853D-01 7.5213D-02
 Trust test= 9.44D-01 RLast= 2.51D-02 DXMaxT set to 5.05D-01
 ITU=  1  1  0
     Eigenvalues ---    0.00335   0.00424   0.00425   0.03532   0.03533
     Eigenvalues ---    0.04613   0.04837   0.05498   0.05499   0.05555
     Eigenvalues ---    0.05601   0.08353   0.08627   0.12216   0.12216
     Eigenvalues ---    0.15698   0.16000   0.16000   0.16000   0.16000
     Eigenvalues ---    0.16362   0.21896   0.24053   0.29126   0.29812
     Eigenvalues ---    0.31246   0.32390   0.32394   0.32401   0.32411
     Eigenvalues ---    0.32500   0.32505   0.32509   0.32522   0.32555
     Eigenvalues ---    0.32927
 DIIS coeff's:      0.91917      0.07468      0.00616
 Cosine:  1.000 >  0.840
 Length:  0.988
 GDIIS step was calculated using  3 of the last  3 vectors.
 Iteration  1 RMS(Cart)=  0.00084768 RMS(Int)=  0.00000119
 Iteration  2 RMS(Cart)=  0.00000062 RMS(Int)=  0.00000110
 Variable       Old X    -DE/DX   Delta X   Delta X   Delta X     New X
                                  (DIIS)     (GDIIS)  (Total)
    R1        2.88038   0.00000   0.00015  -0.00015  -0.00001   2.88037
    R2        2.87991   0.00010   0.00076  -0.00079  -0.00003   2.87987
    R3        2.06573   0.00023   0.00012   0.00059   0.00071   2.06644
    R4        2.06573   0.00023   0.00012   0.00059   0.00071   2.06644
    R5        2.87990   0.00010   0.00075  -0.00078  -0.00003   2.87987
    R6        2.06573   0.00023   0.00012   0.00059   0.00071   2.06644
    R7        2.06573   0.00023   0.00012   0.00059   0.00071   2.06644
    R8        2.06096   0.00025   0.00014   0.00063   0.00077   2.06173
    R9        2.06096   0.00025   0.00014   0.00064   0.00077   2.06173
   R10        2.05816   0.00030   0.00037   0.00044   0.00081   2.05897
   R11        2.06096   0.00025   0.00014   0.00063   0.00077   2.06173
   R12        2.06096   0.00025   0.00014   0.00063   0.00077   2.06173
   R13        2.05816   0.00030   0.00037   0.00044   0.00081   2.05897
    A1        1.96596   0.00026   0.00041   0.00071   0.00113   1.96709
    A2        1.90527  -0.00014  -0.00037  -0.00032  -0.00069   1.90458
    A3        1.90527  -0.00014  -0.00037  -0.00032  -0.00069   1.90458
    A4        1.91443   0.00000  -0.00012   0.00079   0.00067   1.91510
    A5        1.91443   0.00000  -0.00012   0.00079   0.00067   1.91510
    A6        1.85514  -0.00001   0.00057  -0.00181  -0.00124   1.85390
    A7        1.96597   0.00026   0.00041   0.00071   0.00113   1.96709
    A8        1.90527  -0.00014  -0.00037  -0.00032  -0.00068   1.90458
    A9        1.90527  -0.00014  -0.00037  -0.00032  -0.00069   1.90458
   A10        1.91443   0.00000  -0.00012   0.00078   0.00066   1.91510
   A11        1.91443   0.00000  -0.00012   0.00079   0.00067   1.91510
   A12        1.85513  -0.00001   0.00057  -0.00181  -0.00124   1.85390
   A13        1.93378   0.00005  -0.00013   0.00032   0.00019   1.93397
   A14        1.93379   0.00005  -0.00013   0.00032   0.00019   1.93398
   A15        1.94783   0.00023   0.00003   0.00143   0.00146   1.94930
   A16        1.87936  -0.00011   0.00032  -0.00154  -0.00121   1.87815
   A17        1.88328  -0.00012  -0.00005  -0.00033  -0.00037   1.88291
   A18        1.88329  -0.00012  -0.00004  -0.00034  -0.00038   1.88291
   A19        1.93379   0.00005  -0.00013   0.00031   0.00019   1.93398
   A20        1.93379   0.00005  -0.00013   0.00032   0.00019   1.93398
   A21        1.94784   0.00023   0.00003   0.00143   0.00146   1.94930
   A22        1.87935  -0.00011   0.00032  -0.00152  -0.00120   1.87815
   A23        1.88329  -0.00012  -0.00004  -0.00034  -0.00038   1.88291
   A24        1.88328  -0.00012  -0.00005  -0.00033  -0.00037   1.88290
    D1        3.14159   0.00000   0.00000   0.00000   0.00000   3.14159
    D2        1.01052  -0.00008   0.00014  -0.00125  -0.00112   1.00940
    D3       -1.01052   0.00008  -0.00014   0.00126   0.00112  -1.00940
    D4        1.01052  -0.00008   0.00014  -0.00126  -0.00112   1.00940
    D5       -1.12056  -0.00017   0.00028  -0.00251  -0.00224  -1.12279
    D6       -3.14159   0.00000   0.00000   0.00000   0.00000  -3.14159
    D7       -1.01052   0.00008  -0.00014   0.00126   0.00112  -1.00940
    D8        3.14159   0.00000   0.00000   0.00000   0.00000   3.14159
    D9        1.12056   0.00017  -0.00028   0.00251   0.00224   1.12279
   D10       -1.04247   0.00004  -0.00012   0.00076   0.00064  -1.04183
   D11        1.04245  -0.00004   0.00012  -0.00075  -0.00063   1.04182
   D12        3.14159   0.00000   0.00000   0.00000   0.00000   3.14159
   D13        1.08343   0.00004  -0.00039   0.00140   0.00100   1.08443
   D14       -3.11484  -0.00003  -0.00016  -0.00011  -0.00027  -3.11511
   D15       -1.01570   0.00000  -0.00027   0.00064   0.00036  -1.01534
   D16        3.11483   0.00003   0.00015   0.00012   0.00027   3.11510
   D17       -1.08344  -0.00004   0.00039  -0.00139  -0.00099  -1.08444
   D18        1.01570   0.00000   0.00028  -0.00064  -0.00037   1.01533
   D19       -1.04244   0.00004  -0.00012   0.00074   0.00062  -1.04182
   D20        1.04246  -0.00004   0.00012  -0.00075  -0.00063   1.04183
   D21        3.14159   0.00000   0.00000   0.00000   0.00000  -3.14159
   D22        1.08345   0.00004  -0.00039   0.00138   0.00099   1.08444
   D23       -3.11483  -0.00003  -0.00016  -0.00011  -0.00027  -3.11510
   D24       -1.01570   0.00000  -0.00028   0.00064   0.00037  -1.01533
   D25        3.11485   0.00003   0.00016   0.00010   0.00026   3.11511
   D26       -1.08344  -0.00004   0.00039  -0.00139  -0.00100  -1.08443
   D27        1.01570   0.00000   0.00027  -0.00063  -0.00036   1.01534
         Item               Value     Threshold  Converged?
 Maximum Force            0.000301     0.000002     NO 
 RMS     Force            0.000136     0.000001     NO 
 Maximum Displacement     0.003138     0.000006     NO 
 RMS     Displacement     0.000848     0.000004     NO 
 Predicted change in Energy=-2.772115D-06
 GradGradGradGradGradGradGradGradGradGradGradGradGradGradGradGradGradGrad

                          Input orientation:                          
 ---------------------------------------------------------------------
 Center     Atomic      Atomic             Coordinates (Angstroms)
 Number     Number       Type             X           Y           Z
 ---------------------------------------------------------------------
      1          6           0       -0.588451   -0.040559   -0.345088
      2          6           0        0.588451    0.040559    0.620101
      3          6           0       -1.935671    0.058724    0.360323
      4          6           0        1.935670   -0.058725   -0.085308
      5          1           0       -0.531453   -0.980275   -0.901378
      6          1           0       -0.499939    0.758840   -1.085966
      7          1           0        0.499937   -0.758840    1.360979
      8          1           0        0.531451    0.980275    1.176392
      9          1           0       -2.053768   -0.747715    1.085607
     10          1           0       -2.022040    1.003103    0.899784
     11          1           0       -2.764502   -0.001050   -0.344377
     12          1           0        2.022043   -1.003103   -0.624768
     13          1           0        2.053770    0.747714   -0.810594
     14          1           0        2.764502    0.001052    0.619393
 ---------------------------------------------------------------------
                    Distance matrix (angstroms):
                    1          2          3          4          5
     1  C    0.000000
     2  C    1.524227   0.000000
     3  C    1.523963   2.537519   0.000000
     4  C    2.537519   1.523962   3.898674   0.000000
     5  H    1.093514   2.147367   2.154817   2.757158   0.000000
     6  H    1.093514   2.147367   2.154818   2.757158   1.749167
     7  H    2.147366   1.093514   2.757156   2.154817   2.496209
     8  H    2.147367   1.093514   2.757157   2.154817   3.048056
     9  H    2.166591   2.796318   1.091022   4.214424   2.513890
    10  H    2.166591   2.796315   1.091022   4.214423   3.065913
    11  H    2.176410   3.489161   1.089558   4.707660   2.501128
    12  H    2.796317   2.166591   4.214425   1.091022   2.568535
    13  H    2.796318   2.166591   4.214426   1.091022   3.110877
    14  H    3.489161   2.176410   4.707660   1.089558   3.760194
                    6          7          8          9         10
     6  H    0.000000
     7  H    3.048056   0.000000
     8  H    2.496209   1.749167   0.000000
     9  H    3.065914   2.568533   3.110876   0.000000
    10  H    2.513893   3.110870   2.568531   1.760938   0.000000
    11  H    2.501126   3.760193   3.760192   1.762812   1.762813
    12  H    3.110874   2.513894   3.065914   4.427510   4.764843
    13  H    2.568537   3.065914   2.513891   4.764846   4.427510
    14  H    3.760195   2.501128   2.501128   4.898340   4.898338
                   11         12         13         14
    11  H    0.000000
    12  H    4.898340   0.000000
    13  H    4.898341   1.760936   0.000000
    14  H    5.612374   1.762813   1.762812   0.000000
 Stoichiometry    C4H10
 Framework group  C1[X(C4H10)]
 Deg. of freedom    36
 Full point group                 C1      NOp   1
 Largest Abelian subgroup         C1      NOp   1
 Largest concise Abelian subgroup C1      NOp   1
                         Standard orientation:                         
 ---------------------------------------------------------------------
 Center     Atomic      Atomic             Coordinates (Angstroms)
 Number     Number       Type             X           Y           Z
 ---------------------------------------------------------------------
      1          6           0        0.560668    0.516206    0.000000
      2          6           0       -0.560668   -0.516205    0.000000
      3          6           0        1.945665   -0.119599    0.000000
      4          6           0       -1.945665    0.119597    0.000000
      5          1           0        0.451683    1.163507    0.874583
      6          1           0        0.451683    1.163507   -0.874584
      7          1           0       -0.451681   -1.163506    0.874583
      8          1           0       -0.451682   -1.163506   -0.874583
      9          1           0        2.083184   -0.749033    0.880471
     10          1           0        2.083182   -0.749040   -0.880467
     11          1           0        2.733967    0.632544   -0.000003
     12          1           0       -2.083184    0.749038    0.880467
     13          1           0       -2.083186    0.749034   -0.880469
     14          1           0       -2.733966   -0.632545    0.000002
 ---------------------------------------------------------------------
 Rotational constants (GHZ):     23.5400095      3.6623076      3.4368712
 Standard basis: 6-311+G(2df,2p) (5D, 7F)
 There are   226 symmetry adapted basis functions of A   symmetry.
 Integral buffers will be    131072 words long.
 Raffenetti 2 integral format.
 Two-electron integral symmetry is turned on.
   226 basis functions,   318 primitive gaussians,   246 cartesian basis functions
    17 alpha electrons       17 beta electrons
       nuclear repulsion energy       131.0138521763 Hartrees.
 NAtoms=   14 NActive=   14 NUniq=   14 SFac= 1.00D+00 NAtFMM=   50 NAOKFM=F Big=F
 One-electron integrals computed using PRISM.
 NBasis=   226 RedAO= T  NBF=   226
 NBsUse=   226 1.00D-06 NBFU=   226
 Initial guess read from the read-write file.
 B after Tr=     0.000000    0.000000    0.000000
         Rot=    1.000000    0.000000    0.000000    0.000000 Ang=   0.00 deg.
 Initial guess orbital symmetries:
       Occupied  (A) (A) (A) (A) (A) (A) (A) (A) (A) (A) (A) (A)
                 (A) (A) (A) (A) (A)
       Virtual   (A) (A) (A) (A) (A) (A) (A) (A) (A) (A) (A) (A)
                 (A) (A) (A) (A) (A) (A) (A) (A) (A) (A) (A) (A)
                 (A) (A) (A) (A) (A) (A) (A) (A) (A) (A) (A) (A)
                 (A) (A) (A) (A) (A) (A) (A) (A) (A) (A) (A) (A)
                 (A) (A) (A) (A) (A) (A) (A) (A) (A) (A) (A) (A)
                 (A) (A) (A) (A) (A) (A) (A) (A) (A) (A) (A) (A)
                 (A) (A) (A) (A) (A) (A) (A) (A) (A) (A) (A) (A)
                 (A) (A) (A) (A) (A) (A) (A) (A) (A) (A) (A) (A)
                 (A) (A) (A) (A) (A) (A) (A) (A) (A) (A) (A) (A)
                 (A) (A) (A) (A) (A) (A) (A) (A) (A) (A) (A) (A)
                 (A) (A) (A) (A) (A) (A) (A) (A) (A) (A) (A) (A)
                 (A) (A) (A) (A) (A) (A) (A) (A) (A) (A) (A) (A)
                 (A) (A) (A) (A) (A) (A) (A) (A) (A) (A) (A) (A)
                 (A) (A) (A) (A) (A) (A) (A) (A) (A) (A) (A) (A)
                 (A) (A) (A) (A) (A) (A) (A) (A) (A) (A) (A) (A)
                 (A) (A) (A) (A) (A) (A) (A) (A) (A) (A) (A) (A)
                 (A) (A) (A) (A) (A) (A) (A) (A) (A) (A) (A) (A)
                 (A) (A) (A) (A) (A)
 Requested convergence on RMS density matrix=1.00D-08 within 128 cycles.
 Requested convergence on MAX density matrix=1.00D-06.
 Requested convergence on             energy=1.00D-06.
 No special actions if energy rises.
 Keep R1 ints in memory in canonical form, NReq=469379211.
 SCF Done:  E(RM062X) =  -158.413653096     A.U. after    7 cycles
             Convg  =    0.4282D-08             -V/T =  2.0047
 Calling FoFJK, ICntrl=      2127 FMM=F ISym2X=0 I1Cent= 0 IOpClX= 0 NMat=1 NMatS=1 NMatT=0.
 ***** Axes restored to original set *****
 -------------------------------------------------------------------
 Center     Atomic                   Forces (Hartrees/Bohr)
 Number     Number              X              Y              Z
 -------------------------------------------------------------------
      1        6          -0.000148127    0.000021790    0.000178741
      2        6           0.000147419   -0.000021733   -0.000178294
      3        6           0.000130088   -0.000014783   -0.000114286
      4        6          -0.000129288    0.000014735    0.000113357
      5        1           0.000021906   -0.000005252   -0.000022800
      6        1           0.000021957   -0.000000492   -0.000023242
      7        1          -0.000021862    0.000000469    0.000023189
      8        1          -0.000021817    0.000005253    0.000022735
      9        1          -0.000016600    0.000006989    0.000037293
     10        1          -0.000016752    0.000001799    0.000037887
     11        1          -0.000031437    0.000005859    0.000049159
     12        1           0.000016631   -0.000001770   -0.000037653
     13        1           0.000016472   -0.000006999   -0.000037047
     14        1           0.000031411   -0.000005866   -0.000049039
 -------------------------------------------------------------------
 Cartesian Forces:  Max     0.000178741 RMS     0.000066569

 GradGradGradGradGradGradGradGradGradGradGradGradGradGradGradGradGradGrad
 Berny optimization.
 Using GDIIS optimizer.
 Internal  Forces:  Max     0.000073956 RMS     0.000024132
 Search for a local minimum.
 Step number   4 out of a maximum of   74
 All quantities printed in internal units (Hartrees-Bohrs-Radians)
 Swaping is turned off.
 Update second derivatives using D2CorX and points    1    2    3    4
 DE= -3.16D-06 DEPred=-2.77D-06 R= 1.14D+00
 SS=  1.41D+00  RLast= 6.65D-03 DXNew= 8.4853D-01 1.9960D-02
 Trust test= 1.14D+00 RLast= 6.65D-03 DXMaxT set to 5.05D-01
 ITU=  1  1  1  0
     Eigenvalues ---    0.00335   0.00424   0.00425   0.03524   0.03524
     Eigenvalues ---    0.04233   0.04834   0.05486   0.05487   0.05510
     Eigenvalues ---    0.05600   0.08262   0.08366   0.12225   0.12225
     Eigenvalues ---    0.14777   0.16000   0.16000   0.16000   0.16000
     Eigenvalues ---    0.16177   0.21895   0.23093   0.29118   0.29812
     Eigenvalues ---    0.31216   0.32390   0.32392   0.32401   0.32404
     Eigenvalues ---    0.32500   0.32505   0.32509   0.32555   0.32680
     Eigenvalues ---    0.34692
 DIIS coeff's:      1.25731     -0.22911     -0.02412     -0.00407
 Cosine:  1.000 >  0.710
 Length:  1.004
 GDIIS step was calculated using  4 of the last  4 vectors.
 Iteration  1 RMS(Cart)=  0.00017384 RMS(Int)=  0.00000102
 Iteration  2 RMS(Cart)=  0.00000006 RMS(Int)=  0.00000102
 Variable       Old X    -DE/DX   Delta X   Delta X   Delta X     New X
                                  (DIIS)     (GDIIS)  (Total)
    R1        2.88037  -0.00002  -0.00008  -0.00001  -0.00010   2.88028
    R2        2.87987  -0.00007  -0.00026  -0.00017  -0.00043   2.87945
    R3        2.06644   0.00002   0.00007   0.00002   0.00009   2.06654
    R4        2.06644   0.00002   0.00007   0.00002   0.00009   2.06654
    R5        2.87987  -0.00007  -0.00026  -0.00017  -0.00042   2.87945
    R6        2.06644   0.00002   0.00007   0.00002   0.00009   2.06654
    R7        2.06644   0.00002   0.00007   0.00002   0.00009   2.06654
    R8        2.06173   0.00001   0.00007  -0.00001   0.00007   2.06180
    R9        2.06173   0.00001   0.00007  -0.00001   0.00007   2.06180
   R10        2.05897   0.00000   0.00001  -0.00001  -0.00001   2.05896
[...]
 ! R3    R(1,5)                  1.0936         -DE/DX =    0.0                 !
 ! R4    R(1,6)                  1.0936         -DE/DX =    0.0                 !
 ! R5    R(2,4)                  1.5237         -DE/DX =    0.0                 !
 ! R6    R(2,7)                  1.0936         -DE/DX =    0.0                 !
 ! R7    R(2,8)                  1.0936         -DE/DX =    0.0                 !
 ! R8    R(3,9)                  1.0911         -DE/DX =    0.0                 !
 ! R9    R(3,10)                 1.0911         -DE/DX =    0.0                 !
 ! R10   R(3,11)                 1.0896         -DE/DX =    0.0                 !
 ! R11   R(4,12)                 1.0911         -DE/DX =    0.0                 !
 ! R12   R(4,13)                 1.0911         -DE/DX =    0.0                 !
 ! R13   R(4,14)                 1.0896         -DE/DX =    0.0                 !
 ! A1    A(2,1,3)              112.7218         -DE/DX =    0.0                 !
 ! A2    A(2,1,5)              109.1116         -DE/DX =    0.0                 !
 ! A3    A(2,1,6)              109.1116         -DE/DX =    0.0                 !
 ! A4    A(3,1,5)              109.7426         -DE/DX =    0.0                 !
 ! A5    A(3,1,6)              109.7426         -DE/DX =    0.0                 !
 ! A6    A(5,1,6)              106.1971         -DE/DX =    0.0                 !
 ! A7    A(1,2,4)              112.7218         -DE/DX =    0.0                 !
 ! A8    A(1,2,7)              109.1116         -DE/DX =    0.0                 !
 ! A9    A(1,2,8)              109.1116         -DE/DX =    0.0                 !
 ! A10   A(4,2,7)              109.7426         -DE/DX =    0.0                 !
 ! A11   A(4,2,8)              109.7426         -DE/DX =    0.0                 !
 ! A12   A(7,2,8)              106.1971         -DE/DX =    0.0                 !
 ! A13   A(1,3,9)              110.8206         -DE/DX =    0.0                 !
 ! A14   A(1,3,10)             110.8206         -DE/DX =    0.0                 !
 ! A15   A(1,3,11)             111.711          -DE/DX =    0.0                 !
 ! A16   A(9,3,10)             107.5865         -DE/DX =    0.0                 !
 ! A17   A(9,3,11)             107.8687         -DE/DX =    0.0                 !
 ! A18   A(10,3,11)            107.8687         -DE/DX =    0.0                 !
 ! A19   A(2,4,12)             110.8206         -DE/DX =    0.0                 !
 ! A20   A(2,4,13)             110.8206         -DE/DX =    0.0                 !
 ! A21   A(2,4,14)             111.711          -DE/DX =    0.0                 !
 ! A22   A(12,4,13)            107.5865         -DE/DX =    0.0                 !
 ! A23   A(12,4,14)            107.8687         -DE/DX =    0.0                 !
 ! A24   A(13,4,14)            107.8687         -DE/DX =    0.0                 !
 ! D1    D(3,1,2,4)           -180.0            -DE/DX =    0.0                 !
 ! D2    D(3,1,2,7)             57.8132         -DE/DX =    0.0                 !
 ! D3    D(3,1,2,8)            -57.8133         -DE/DX =    0.0                 !
 ! D4    D(5,1,2,4)             57.8132         -DE/DX =    0.0                 !
 ! D5    D(5,1,2,7)            -64.3735         -DE/DX =    0.0                 !
 ! D6    D(5,1,2,8)            180.0            -DE/DX =    0.0                 !
 ! D7    D(6,1,2,4)            -57.8133         -DE/DX =    0.0                 !
 ! D8    D(6,1,2,7)            180.0            -DE/DX =    0.0                 !
 ! D9    D(6,1,2,8)             64.3735         -DE/DX =    0.0                 !
 ! D10   D(2,1,3,9)            -59.6851         -DE/DX =    0.0                 !
 ! D11   D(2,1,3,10)            59.685          -DE/DX =    0.0                 !
 ! D12   D(2,1,3,11)           180.0            -DE/DX =    0.0                 !
 ! D13   D(5,1,3,9)             62.1457         -DE/DX =    0.0                 !
 ! D14   D(5,1,3,10)          -178.4842         -DE/DX =    0.0                 !
 ! D15   D(5,1,3,11)           -58.1693         -DE/DX =    0.0                 !
 ! D16   D(6,1,3,9)            178.4842         -DE/DX =    0.0                 !
 ! D17   D(6,1,3,10)           -62.1457         -DE/DX =    0.0                 !
 ! D18   D(6,1,3,11)            58.1692         -DE/DX =    0.0                 !
 ! D19   D(1,2,4,12)           -59.685          -DE/DX =    0.0                 !
 ! D20   D(1,2,4,13)            59.6851         -DE/DX =    0.0                 !
 ! D21   D(1,2,4,14)          -180.0            -DE/DX =    0.0                 !
 ! D22   D(7,2,4,12)            62.1457         -DE/DX =    0.0                 !
 ! D23   D(7,2,4,13)          -178.4842         -DE/DX =    0.0                 !
 ! D24   D(7,2,4,14)           -58.1693         -DE/DX =    0.0                 !
 ! D25   D(8,2,4,12)           178.4842         -DE/DX =    0.0                 !
 ! D26   D(8,2,4,13)           -62.1457         -DE/DX =    0.0                 !
 ! D27   D(8,2,4,14)            58.1693         -DE/DX =    0.0                 !
 --------------------------------------------------------------------------------
 GradGradGradGradGradGradGradGradGradGradGradGradGradGradGradGradGradGrad


 Test job not archived.
 1\1\GINC-COMPUTE-3-042\Freq\RM062X\6-311+G(2df,2p)\C4H10\ROOT\21-Sep-2
 016\0\\#N Geom=AllCheck Guess=TCheck SCRF=Check Test GenChk RM062X/6-3
 11+G(2df,2p) Freq\\InChI=1S/C4H10/c1-3-4-2/h3-4H2,1-2H3\\0,1\C,-0.5885
 394185,-0.0405445511,-0.3449716713\C,0.5885394175,0.0405447059,0.61998
 59342\C,-1.9356013774,0.0587117529,0.3602172192\C,1.9356013789,-0.0587
 118726,-0.0852029163\H,-0.5312480852,-0.9801897106,-0.9014473886\H,-0.
 499738115,0.7587379376,-1.0860130782\H,0.4997380227,-0.7587376509,1.36
 10274723\H,0.5312481862,0.9801899657,1.1764614897\H,-2.0539091757,-0.7
 47602468,1.0856633002\H,-2.0221869794,1.0030114791,0.8998581502\H,-2.7
 646821147,-0.001029831,-0.3442019215\H,2.0221870769,-1.0030119135,-0.6
 248432832\H,2.0539090759,0.7476019241,-0.8106494899\H,2.764682108,0.00
 10302323,0.6192161833\\Version=EM64L-G09RevB.01\State=1-A\HF=-158.4136
 533\RMSD=9.718e-09\RMSF=8.156e-06\ZeroPoint=0.131536\Thermal=0.1375328
 \Dipole=0.,0.,0.\DipoleDeriv=0.0773227,-0.000119,-0.009323,0.0009817,0
 .1247558,-0.0055635,0.0010474,-0.0057514,0.0713549,0.0773227,-0.000119
 ,-0.009323,0.0009817,0.1247558,-0.0055635,0.0010474,-0.0057514,0.07135
 49,-0.0237062,0.0039192,0.0175528,0.0011998,0.0894352,-0.0029127,-0.00
 8069,-0.0024485,0.0653196,-0.0237062,0.0039192,0.0175528,0.0011997,0.0
 894352,-0.0029127,-0.008069,-0.0024485,0.0653196,-0.00323,0.0239817,0.
 0191422,0.0147375,-0.0942237,-0.1108994,0.004279,-0.0806196,-0.0215492
 ,-0.0046182,-0.0214508,0.028167,-0.0156466,-0.0504599,0.1163901,0.0106
 199,0.0866976,-0.0639248,-0.0046182,-0.0214508,0.028167,-0.0156466,-0.
 0504599,0.1163901,0.0106199,0.0866976,-0.0639248,-0.00323,0.0239817,0.
 0191421,0.0147375,-0.0942238,-0.1108994,0.004279,-0.0806196,-0.0215491
 ,0.0335307,0.0184671,0.0023595,-0.0245849,-0.0499739,0.1050919,0.05147
 8,0.086951,-0.03438,0.03382,-0.0216662,0.0029457,0.030803,-0.0891738,-
 0.0934684,0.0425542,-0.0769353,0.0045306,-0.1131188,-0.003132,-0.06084
 41,-0.0074905,0.0696404,-0.008638,-0.1019094,-0.0078938,-0.0213512,0.0
 3382,-0.0216662,0.0029457,0.030803,-0.0891739,-0.0934684,0.0425541,-0.
 0769353,0.0045307,0.0335307,0.0184671,0.0023595,-0.0245849,-0.0499738,
 0.1050919,0.051478,0.086951,-0.0343801,-0.1131188,-0.003132,-0.0608441
 ,-0.0074906,0.0696404,-0.008638,-0.1019094,-0.0078939,-0.0213512\Polar
 =58.5462724,-0.343458,45.4695443,-0.996539,0.3219374,48.2922197\PG=C01
  [X(C4H10)]\NImag=0\\0.46596165,0.00074924,0.58902137,-0.01404524,-0.0
 0511391,0.53899807,-0.14045257,-0.00514064,-0.05868284,0.46596165,-0.0
 0514064,-0.08081135,-0.00456919,0.00074925,0.58902137,-0.05868284,-0.0
 0456919,-0.13348788,-0.01404524,-0.00511391,0.53899807,-0.17273738,0.0
 0707360,0.05085615,-0.03058550,0.00181849,0.01200780,0.50254562,0.0074
 1627,-0.08081533,-0.00403103,-0.00149131,-0.00041223,0.00116932,0.0055
 9591,0.56259631,0.05408472,-0.00408953,-0.10954996,-0.01917632,0.00173
 439,0.01250370,0.04241074,-0.00236814,0.54787764,-0.03058550,0.0018185
 0,0.01200780,-0.17273738,0.00707362,0.05085615,-0.00275121,-0.00035126
 ,-0.00372498,0.50254562,-0.00149132,-0.00041223,0.00116932,0.00741629,
 -0.08081534,-0.00403104,-0.00035126,-0.00034477,-0.00031664,0.00559592
 ,0.56259630,-0.01917632,0.00173439,0.01250370,0.05408471,-0.00408954,-
 0.10954996,-0.00372498,-0.00031664,-0.00393674,0.04241074,-0.00236814,
 0.54787764,-0.04587556,0.01050121,0.00626353,-0.00113267,-0.02358728,-
 0.01348276,-0.00332447,0.02757962,0.01601591,0.00182373,-0.00098927,-0
 .00042189,0.05537024,0.01078830,-0.23928083,-0.10838507,-0.00007604,-0
 .00170247,-0.00100928,0.00027830,-0.00055433,-0.00010425,0.00016451,0.
 00032787,0.00037840,-0.01199227,0.25748615,0.00639847,-0.10765205,-0.1
 1034303,-0.00052212,-0.02029684,-0.01261130,0.00171860,-0.01340342,-0.
 00798287,0.00119961,0.00027738,0.00063324,-0.00648461,0.12093259,0.120
 36151,-0.04680939,-0.01453404,0.01324569,-0.00033668,0.02025811,-0.018
 13954,-0.00424912,-0.02342738,0.02138744,0.00185419,0.00082035,-0.0006
 2590,-0.00053170,0.00112736,-0.00110939,0.05640706,-0.01478921,-0.1884
 1029,0.12489612,0.00006355,0.00146333,-0.00151834,0.00031627,0.0027263
 4,-0.00278234,0.00003291,0.00017406,-0.00026427,-0.00215692,-0.0214347
 6,0.01902625,0.01610374,0.20085632,0.01341151,0.12415766,-0.16027975,0
 .00014866,0.01720298,-0.01657308,0.00216532,0.01112422,-0.01033889,0.0
 0120416,-0.00022579,0.00075659,-0.00132156,-0.01192007,0.01144751,-0.0
 1426667,-0.13795333,0.17595455,-0.00033668,0.02025811,-0.01813954,-0.0
 4680939,-0.01453406,0.01324571,0.00185419,0.00082035,-0.00062590,-0.00
 424912,-0.02342738,0.02138745,0.00104118,-0.00038374,0.00091235,-0.004
 13232,-0.00040863,-0.00363681,0.05640706,0.00006355,0.00146333,-0.0015
 1834,-0.01478922,-0.18841025,0.12489612,0.00003291,0.00017406,-0.00026
 427,0.00031628,0.00272635,-0.00278234,0.00055547,0.00073800,0.00011169
 ,-0.00040863,0.00165793,-0.00066990,0.01610376,0.20085626,0.00014867,0
 .01720298,-0.01657308,0.01341153,0.12415766,-0.16027980,0.00120416,-0.
 00022579,0.00075659,0.00216533,0.01112422,-0.01033889,0.00080678,-0.00
 021301,0.00041438,-0.00363681,-0.00066990,-0.00228940,-0.01426669,-0.1
 3795333,0.17595459,-0.00113267,-0.02358728,-0.01348275,-0.04587556,0.0
 1050119,0.00626352,0.00182373,-0.00098927,-0.00042189,-0.00332446,0.02
 757963,0.01601590,-0.00412306,-0.00015201,-0.00365294,0.00104118,0.000
 55547,0.00080678,-0.00053170,-0.00215693,-0.00132157,0.05537024,-0.000
 07604,-0.00170247,-0.00100928,0.01078828,-0.23928088,-0.10838505,0.000
 16451,0.00032787,0.00037840,0.00027830,-0.00055433,-0.00010425,-0.0001
 5201,0.00177746,-0.00006953,-0.00038374,0.00073801,-0.00021301,0.00112
 736,-0.02143476,-0.01192007,-0.01199225,0.25748620,-0.00052212,-0.0202
 9684,-0.01261130,0.00639845,-0.10765203,-0.11034299,0.00119961,0.00027
 738,0.00063324,0.00171860,-0.01340343,-0.00798287,-0.00365294,-0.00006
 953,-0.00241820,0.00091235,0.00011169,0.00041438,-0.00110939,0.0190262
 5,0.01144751,-0.00648460,0.12093257,0.12036147,-0.00405066,-0.02365137
 ,0.02030924,0.00193650,-0.00106401,0.00107280,-0.04823413,-0.01858914,
 0.01526376,-0.00009502,0.00019317,0.00000714,0.00122716,0.00035019,-0.
 00059090,-0.00527280,0.00068628,0.00265477,-0.00037390,0.00055666,-0.0
 0063054,-0.00006493,-0.00001053,-0.00012095,0.05287145,0.00032318,0.00
 266667,-0.00232879,0.00009754,0.00010852,-0.00024573,-0.01897076,-0.19
 230045,0.12842604,-0.00009725,0.00023932,-0.00028777,-0.00062560,0.000
 66528,-0.00003132,0.00087373,0.00146680,-0.00053742,-0.00048982,0.0000
 3411,-0.00010353,-0.00005216,-0.00010544,0.00011551,0.02038233,0.20575
 148,0.00210903,0.01217908,-0.01171360,-0.00091867,-0.00041712,0.000579
 98,0.01552355,0.12817151,-0.16049437,-0.00003786,-0.00025985,0.0001729
 5,-0.00044851,-0.00019515,-0.00002110,0.00304077,-0.00090967,-0.000462
 96,0.00039376,0.00001626,0.00063954,0.00007928,-0.00008268,0.00000076,
 -0.02084377,-0.14179233,0.17326898,-0.00312310,0.02755462,0.01489649,0
 .00196941,0.00120250,0.00084205,-0.04699388,0.01475144,0.00728815,-0.0
 0009807,-0.00017219,0.00005586,-0.00529809,0.00013449,0.00272312,0.001
 23236,-0.00048630,-0.00050333,-0.00006290,-0.00001708,-0.00012394,-0.0
 0037664,-0.00066065,-0.00049495,-0.00104689,-0.00236339,-0.00171568,0.
 05149015,0.00023970,-0.00097992,-0.00072154,-0.00035043,0.00023255,0.0
 0028219,0.01518005,-0.24487185,-0.11084988,0.00010221,0.00035184,0.000
 24852,0.00003363,0.00168167,-0.00002063,0.00049826,0.00068038,-0.00009
 954,0.00006639,-0.00010933,-0.00008763,0.00057701,0.00008226,0.0002439
 2,0.00130725,-0.02031062,-0.01245057,-0.01720391,0.26400913,0.00162455
 ,-0.01465911,-0.00899457,-0.00085389,0.00052039,0.00042305,0.00747102,
 -0.11060337,-0.10916324,-0.00005005,0.00022335,0.00006348,0.00315294,0
 .00033684,-0.00065253,-0.00056309,0.00006279,-0.00004141,0.00007006,0.
 00010341,0.00000261,0.00028199,0.00009150,0.00059413,-0.00152795,0.019
 40927,0.01181528,-0.01194325,0.12305407,0.11639265,-0.02078691,-0.0018
 1853,-0.02043159,-0.00397714,0.00063810,0.00528822,-0.19614959,-0.0111
 8100,-0.13082927,-0.00100516,-0.00015521,-0.00173536,0.00100807,0.0005
 4284,-0.00012769,0.00098268,-0.00059500,-0.00001991,0.00025135,0.00013
 826,0.00011156,0.00025674,-0.00011074,0.00015142,0.00292600,0.00083710
 ,0.00295962,0.00214282,-0.00032903,0.00245477,0.21498580,0.00184924,-0
 .00130503,0.00187289,0.00032061,0.00022501,-0.00029764,-0.01126406,-0.
 04771400,-0.00977420,0.00012109,0.00059723,0.00004965,0.00001894,0.000
 01613,0.00042498,-0.00024529,-0.00002076,-0.00028789,-0.00025904,0.000
 17788,-0.00038674,0.00028963,0.00030301,0.00034148,0.01963104,0.001863
 51,0.01580124,-0.02246999,-0.00071729,-0.01861543,0.01198090,0.0466071
 8,0.01412525,0.00124670,0.01268742,0.00229690,-0.00024344,-0.00163905,
 -0.13161189,-0.00976002,-0.16130724,0.00086783,0.00000248,0.00076571,-
 0.00090953,0.00001845,0.00059039,-0.00087921,0.00014837,0.00065268,0.0
 0017054,-0.00026703,0.00011765,0.00012139,0.00022125,-0.00001288,-0.01
 531916,-0.00261933,-0.01378042,-0.01080136,0.00037657,-0.01041643,0.14
 178851,0.01088595,0.17244110,0.00196941,0.00120250,0.00084205,-0.00312
 310,0.02755462,0.01489647,-0.00009807,-0.00017219,0.00005586,-0.046993
 89,0.01475147,0.00728815,-0.00037664,-0.00066065,-0.00049495,-0.000062
 90,-0.00001708,-0.00012394,0.00123236,-0.00048630,-0.00050333,-0.00529
 809,0.00013449,0.00272312,0.00002818,0.00002099,0.00001728,0.00012806,
 -0.00019308,-0.00016926,0.00000859,-0.00009743,-0.00007117,0.05149015,
 -0.00035043,0.00023254,0.00028219,0.00023970,-0.00097992,-0.00072155,0
 .00010221,0.00035184,0.00024852,0.01518007,-0.24487198,-0.11084980,0.0
 0057701,0.00008226,0.00024392,0.00006639,-0.00010933,-0.00008763,0.000
 49826,0.00068038,-0.00009954,0.00003363,0.00168167,-0.00002063,-0.0000
 1864,-0.00002081,-0.00000166,-0.00019309,-0.00001156,0.00004078,0.0000
 9061,-0.00001644,-0.00001459,-0.01720394,0.26400927,-0.00085389,0.0005
 2039,0.00042305,0.00162455,-0.01465911,-0.00899456,-0.00005005,0.00022
 335,0.00006348,0.00747103,-0.11060328,-0.10916309,0.00028198,0.0000915
 0,0.00059413,0.00007006,0.00010341,0.00000261,-0.00056309,0.00006279,-
 0.00004141,0.00315294,0.00033684,-0.00065254,0.00002139,-0.00000704,-0
 .00005802,-0.00016926,0.00004078,0.00000486,0.00003078,0.00004255,0.00
 003014,-0.01194325,0.12305397,0.11639249,0.00193650,-0.00106401,0.0010
 7280,-0.00405066,-0.02365136,0.02030925,-0.00009502,0.00019317,0.00000
 714,-0.04823413,-0.01858911,0.01526376,-0.00006493,-0.00001054,-0.0001
 2095,-0.00037390,0.00055666,-0.00063054,-0.00527280,0.00068628,0.00265
 478,0.00122716,0.00035019,-0.00059090,0.00014041,0.00014737,-0.0002066
 5,0.00002818,-0.00001864,0.00002139,0.00000864,0.00007941,-0.00008917,
 -0.00104689,0.00130725,-0.00152795,0.05287145,0.00009754,0.00010852,-0
 .00024573,0.00032318,0.00266668,-0.00232879,-0.00009725,0.00023932,-0.
 00028777,-0.01897073,-0.19230029,0.12842606,-0.00005216,-0.00010545,0.
 00011551,-0.00048982,0.00003411,-0.00010353,0.00087373,0.00146680,-0.0
 0053742,-0.00062560,0.00066528,-0.00003132,0.00014737,-0.00003835,-0.0
 0002585,0.00002099,-0.00002081,-0.00000704,-0.00008326,-0.00002002,0.0
 0002828,-0.00236339,-0.02031061,0.01940929,0.02038230,0.20575131,-0.00
 091867,-0.00041711,0.00057998,0.00210903,0.01217907,-0.01171360,-0.000
 03786,-0.00025986,0.00017295,0.01552354,0.12817153,-0.16049454,0.00007
 928,-0.00008268,0.00000076,0.00039376,0.00001626,0.00063954,0.00304077
 ,-0.00090967,-0.00046296,-0.00044851,-0.00019515,-0.00002110,-0.000206
 65,-0.00002585,0.00001930,0.00001728,-0.00000166,-0.00005802,0.0000478
 6,-0.00003319,0.00003367,-0.00171568,-0.01245055,0.01181527,-0.0208437
 7,-0.14179235,0.17326917,-0.00397714,0.00063810,0.00528822,-0.02078691
 ,-0.00181854,-0.02043159,-0.00100516,-0.00015521,-0.00173536,-0.196149
 59,-0.01118110,-0.13082927,0.00025674,-0.00011074,0.00015142,0.0002513
 5,0.00013826,0.00011155,0.00098267,-0.00059500,-0.00001991,0.00100807,
 0.00054284,-0.00012769,0.00000864,-0.00008326,0.00004786,0.00000859,0.
 00009061,0.00003078,-0.00065188,0.00004495,0.00031108,0.00214283,-0.00
 032903,0.00245478,0.00292600,0.00083710,0.00295962,0.21498580,0.000320
 61,0.00022501,-0.00029764,0.00184925,-0.00130503,0.00187290,0.00012109
 ,0.00059723,0.00004965,-0.01126416,-0.04771402,-0.00977428,0.00028963,
 0.00030301,0.00034148,-0.00025904,0.00017788,-0.00038674,-0.00024529,-
 0.00002076,-0.00028789,0.00001894,0.00001613,0.00042498,0.00007941,-0.
 00002002,-0.00003319,-0.00009743,-0.00001644,0.00004255,0.00004496,0.0
 0000360,-0.00002364,-0.02247000,-0.00071731,-0.01861544,0.01963103,0.0
 0186352,0.01580123,0.01198101,0.04660719,0.00229690,-0.00024344,-0.001
 63905,0.01412525,0.00124671,0.01268741,0.00086783,0.00000248,0.0007657
 1,-0.13161189,-0.00976010,-0.16130723,0.00012139,0.00022125,-0.0000128
 8,0.00017054,-0.00026703,0.00011765,-0.00087921,0.00014837,0.00065268,
 -0.00090953,0.00001845,0.00059039,-0.00008917,0.00002828,0.00003367,-0
 .00007117,-0.00001459,0.00003014,0.00031108,-0.00002364,-0.00016274,-0
 .01080134,0.00037656,-0.01041642,-0.01531918,-0.00261934,-0.01378043,0
 .14178851,0.01088604,0.17244109\\0.00000388,-0.00000047,-0.00000381,-0
 .00000388,0.00000047,0.00000381,-0.00000142,-0.00000149,-0.00001429,0.
 00000143,0.00000149,0.00001429,0.00000850,-0.00000067,-0.00000392,0.00
 000850,-0.00000048,-0.00000394,-0.00000850,0.00000048,0.00000394,-0.00
 000850,0.00000067,0.00000392,-0.00000658,-0.00000159,-0.00001497,-0.00
 000657,-0.00000136,-0.00001499,0.00000347,-0.00000225,-0.00002063,0.00
 000657,0.00000136,0.00001499,0.00000658,0.00000159,0.00001497,-0.00000
 347,0.00000225,0.00002063\\\@


          EVOLUTION
 IN THE BEGINNING GOD MADE MAN.
 HE WORKED THE DIRT WITH HIS HANDS.
 THEN GOD DECIDED TO GIVE MAN SCIENCE,
 MAN SHOULD BE USEFUL (LIKE AN APPLIANCE.)
 BUT SOON MAN'S KNOWLEDGE GREW TOO GREAT,
 TO THE HEADING SCIENCE HE COULDN'T RELATE
 SO GOD SAID "LETS HAVE DIFFERENT FIELDS,
 WE'LL DIVIDE THEM UP, SEE WHAT IT YIELDS."
 ENTER PHYSICS, CHEMISTRY, BIO
 THEY SPRANG UP AROUND THE NILE.
 BUT CHEMISTRY SURPASSED THE REST
 FAR AND AWAY IT WAS THE BEST.
 EXPERIMENT WAS GOD'S DECREE
 EXPERIMENT DID CHEMISTS WITH LOTS OF GLEE
 BUT SOON THEIR TESTS BEGAN TO BOG,
 THEY FOUND THEMSELVES DEEP IN A FOG.
 "GIVE US SOME HELP" THEY CRIED TO GOD.
 GOD LOOKED AROUND, THEN GAVE THE NOD.
 ENTER EINSTEIN, HEISENBERG, BOHR,
 REACTION PATHS WERE CLEAR ONCE MORE.
 WITH THEORISTS GOD SEND DIRECTION
 AND THEN HE STOPPED, HE'D MADE PERFECTION.
          -- THOMAS A. HOLME, 1981
 Job cpu time:  0 days  0 hours 56 minutes  5.4 seconds.
 File lengths (MBytes):  RWF=    112 Int=      0 D2E=      0 Chk=      5 Scr=      1
 Normal termination of Gaussian 09 at Wed Sep 21 02:30:48 2016.
