 Entering Gaussian System, Link 0=/shared/apps/gaussian/G09_LINUX_LINDA/g09/g09
 Input=/gss_gpfs_scratch/westgroup/QMscratch/WPWHSFAFEBZWBB-UHFFFAOYSA-u1.gjf
 Output=/gss_gpfs_scratch/westgroup/QMscratch/WPWHSFAFEBZWBB-UHFFFAOYSA-u1.log
 Initial command:
 /shared/apps/gaussian/G09_LINUX_LINDA/g09/l1.exe /gss_gpfs_scratch/westgroup/rwest-autotst-1/Gau-40632.inp -scrdir=/gss_gpfs_scratch/westgroup/rwest-autotst-1/
 Entering Link 1 = /shared/apps/gaussian/G09_LINUX_LINDA/g09/l1.exe PID=     40633.
  
 Copyright (c) 1988,1990,1992,1993,1995,1998,2003,2009,2010,
            Gaussian, Inc.  All Rights Reserved.
  
 This is part of the Gaussian(R) 09 program.  It is based on
 the Gaussian(R) 03 system (copyright 2003, Gaussian, Inc.),
 the Gaussian(R) 98 system (copyright 1998, Gaussian, Inc.),
 the Gaussian(R) 94 system (copyright 1995, Gaussian, Inc.),
 the Gaussian 92(TM) system (copyright 1992, Gaussian, Inc.),
 the Gaussian 90(TM) system (copyright 1990, Gaussian, Inc.),
 the Gaussian 88(TM) system (copyright 1988, Gaussian, Inc.),
 the Gaussian 86(TM) system (copyright 1986, Carnegie Mellon
 University), and the Gaussian 82(TM) system (copyright 1983,
 Carnegie Mellon University). Gaussian is a federally registered
 trademark of Gaussian, Inc.
  
 This software contains proprietary and confidential information,
 including trade secrets, belonging to Gaussian, Inc.
  
 This software is provided under written license and may be
 used, copied, transmitted, or stored only in accord with that
 written license.
  
 The following legend is applicable only to US Government
 contracts under FAR:
  
                    RESTRICTED RIGHTS LEGEND
  
 Use, reproduction and disclosure by the US Government is
 subject to restrictions as set forth in subparagraphs (a)
 and (c) of the Commercial Computer Software - Restricted
 Rights clause in FAR 52.227-19.
  
 Gaussian, Inc.
 340 Quinnipiac St., Bldg. 40, Wallingford CT 06492
  
  
 ---------------------------------------------------------------
 Warning -- This program may not be used in any manner that
 competes with the business of Gaussian, Inc. or will provide
 assistance to any competitor of Gaussian, Inc.  The licensee
 of this program is prohibited from giving any competitor of
 Gaussian, Inc. access to this program.  By using this program,
 the user acknowledges that Gaussian, Inc. is engaged in the
 business of creating and licensing software in the field of
 computational chemistry and represents and warrants to the
 licensee that it is not a competitor of Gaussian, Inc. and that
 it will not use this program in any manner prohibited above.
 ---------------------------------------------------------------
  

 Cite this work as:
 Gaussian 09, Revision B.01,
 M. J. Frisch, G. W. Trucks, H. B. Schlegel, G. E. Scuseria, 
 M. A. Robb, J. R. Cheeseman, G. Scalmani, V. Barone, B. Mennucci, 
 G. A. Petersson, H. Nakatsuji, M. Caricato, X. Li, H. P. Hratchian, 
 A. F. Izmaylov, J. Bloino, G. Zheng, J. L. Sonnenberg, M. Hada, 
 M. Ehara, K. Toyota, R. Fukuda, J. Hasegawa, M. Ishida, T. Nakajima, 
 Y. Honda, O. Kitao, H. Nakai, T. Vreven, J. A. Montgomery, Jr., 
 J. E. Peralta, F. Ogliaro, M. Bearpark, J. J. Heyd, E. Brothers, 
 K. N. Kudin, V. N. Staroverov, T. Keith, R. Kobayashi, J. Normand, 
 K. Raghavachari, A. Rendell, J. C. Burant, S. S. Iyengar, J. Tomasi, 
 M. Cossi, N. Rega, J. M. Millam, M. Klene, J. E. Knox, J. B. Cross, 
 V. Bakken, C. Adamo, J. Jaramillo, R. Gomperts, R. E. Stratmann, 
 O. Yazyev, A. J. Austin, R. Cammi, C. Pomelli, J. W. Ochterski, 
 R. L. Martin, K. Morokuma, V. G. Zakrzewski, G. A. Voth, 
 P. Salvador, J. J. Dannenberg, S. Dapprich, A. D. Daniels, 
 O. Farkas, J. B. Foresman, J. V. Ortiz, J. Cioslowski, 
 and D. J. Fox, Gaussian, Inc., Wallingford CT, 2010.
 
 ******************************************
 Gaussian 09:  EM64L-G09RevB.01 12-Aug-2010
                 7-Mar-2017 
 ******************************************
 %nprocshared=20
 Will use up to   20 processors via shared memory.
 %mem=5GB
 --------------------------------------------------------------
 # m062x/6-311+g(2df,2p) opt=(verytight,gdiis) freq IOP(2/16=3)
 --------------------------------------------------------------

 Warning!  Use of Opt=GDIIS is deprecated since it is seldom a good choice.

 1/7=1,14=-1,18=20,19=11,26=3,38=1/1,3;
 2/9=110,12=2,16=3,17=6,18=5,40=1/2;
 3/5=4,6=6,7=214,11=2,16=1,25=1,30=1,71=1,74=-55/1,2,3;
 4//1;
 5/5=2,38=5/2;
 6/7=2,8=2,9=2,10=2,28=1/1;
 7//1,2,3,16;
 1/7=1,14=-1,18=20,19=11/3(2);
 2/9=110,16=3/2;
 99//99;
 2/9=110,16=3/2;
 3/5=4,6=6,7=214,11=2,16=1,25=1,30=1,71=1,74=-55/1,2,3;
 4/5=5,16=3/1;
 5/5=2,38=5/2;
 7//1,2,3,16;
 1/7=1,14=-1,18=20,19=11/3(-5);
 2/9=110,16=3/2;
 6/7=2,8=2,9=2,10=2,19=2,28=1/1;
 99/9=1/99;
 --------------------------------------
 InChI=1S/C4H9/c1-3-4-2/h1,3-4H2,2H3/u1
 --------------------------------------
 Symbolic Z-matrix:
 Charge =  0 Multiplicity = 2
 C                    -0.4575    0.3902    0.1471 
 C                     0.7667   -0.313    -0.4448 
 C                    -1.7405   -0.3671   -0.1825 
 C                     2.0408    0.4427   -0.0932 
 H                    -0.3521    0.4574    1.2521 
 H                    -0.533     1.421    -0.2632 
 H                     0.6727   -0.3744   -1.5511 
 H                     0.8398   -1.3438   -0.0353 
 H                    -1.881    -0.4276   -1.2829 
 H                    -2.6099    0.1653    0.2576 
 H                    -1.7021   -1.3939    0.2397 
 H                     2.0295    1.4562   -0.5481 
 H                     2.9266   -0.1131   -0.4663 
 

 GradGradGradGradGradGradGradGradGradGradGradGradGradGradGradGradGradGrad
 Berny optimization.
 Initialization pass.
                           ----------------------------
                           !    Initial Parameters    !
                           ! (Angstroms and Degrees)  !
 --------------------------                            --------------------------
 ! Name  Definition              Value          Derivative Info.                !
 --------------------------------------------------------------------------------
 ! R1    R(1,2)                  1.5308         estimate D2E/DX2                !
 ! R2    R(1,3)                  1.5259         estimate D2E/DX2                !
 ! R3    R(1,5)                  1.112          estimate D2E/DX2                !
 ! R4    R(1,6)                  1.112          estimate D2E/DX2                !
 ! R5    R(2,4)                  1.5225         estimate D2E/DX2                !
 ! R6    R(2,7)                  1.112          estimate D2E/DX2                !
 ! R7    R(2,8)                  1.1116         estimate D2E/DX2                !
 ! R8    R(3,9)                  1.111          estimate D2E/DX2                !
 ! R9    R(3,10)                 1.1104         estimate D2E/DX2                !
 ! R10   R(3,11)                 1.1109         estimate D2E/DX2                !
 ! R11   R(4,12)                 1.111          estimate D2E/DX2                !
 ! R12   R(4,13)                 1.1103         estimate D2E/DX2                !
 ! A1    A(2,1,3)              111.1559         estimate D2E/DX2                !
 ! A2    A(2,1,5)              109.6432         estimate D2E/DX2                !
 ! A3    A(2,1,6)              109.7207         estimate D2E/DX2                !
 ! A4    A(3,1,5)              108.9249         estimate D2E/DX2                !
 ! A5    A(3,1,6)              108.8609         estimate D2E/DX2                !
 ! A6    A(5,1,6)              108.4845         estimate D2E/DX2                !
 ! A7    A(1,2,4)              110.6048         estimate D2E/DX2                !
 ! A8    A(1,2,7)              110.0253         estimate D2E/DX2                !
 ! A9    A(1,2,8)              109.641          estimate D2E/DX2                !
 ! A10   A(4,2,7)              109.1415         estimate D2E/DX2                !
 ! A11   A(4,2,8)              108.6736         estimate D2E/DX2                !
 ! A12   A(7,2,8)              108.7156         estimate D2E/DX2                !
 ! A13   A(1,3,9)              110.3233         estimate D2E/DX2                !
 ! A14   A(1,3,10)             109.5583         estimate D2E/DX2                !
 ! A15   A(1,3,11)             110.3398         estimate D2E/DX2                !
 ! A16   A(9,3,10)             108.6424         estimate D2E/DX2                !
 ! A17   A(9,3,11)             109.2977         estimate D2E/DX2                !
 ! A18   A(10,3,11)            108.6392         estimate D2E/DX2                !
 ! A19   A(2,4,12)             110.4711         estimate D2E/DX2                !
 ! A20   A(2,4,13)             109.9724         estimate D2E/DX2                !
 ! A21   A(12,4,13)            109.0983         estimate D2E/DX2                !
 ! D1    D(3,1,2,4)           -179.2585         estimate D2E/DX2                !
 ! D2    D(3,1,2,7)             60.0854         estimate D2E/DX2                !
 ! D3    D(3,1,2,8)            -59.4323         estimate D2E/DX2                !
 ! D4    D(5,1,2,4)            -58.7686         estimate D2E/DX2                !
 ! D5    D(5,1,2,7)           -179.4248         estimate D2E/DX2                !
 ! D6    D(5,1,2,8)             61.0575         estimate D2E/DX2                !
 ! D7    D(6,1,2,4)             60.2805         estimate D2E/DX2                !
 ! D8    D(6,1,2,7)            -60.3756         estimate D2E/DX2                !
 ! D9    D(6,1,2,8)           -179.8933         estimate D2E/DX2                !
 ! D10   D(2,1,3,9)            -60.3833         estimate D2E/DX2                !
 ! D11   D(2,1,3,10)          -179.9432         estimate D2E/DX2                !
 ! D12   D(2,1,3,11)            60.4905         estimate D2E/DX2                !
 ! D13   D(5,1,3,9)            178.7037         estimate D2E/DX2                !
 ! D14   D(5,1,3,10)            59.1437         estimate D2E/DX2                !
 ! D15   D(5,1,3,11)           -60.4225         estimate D2E/DX2                !
 ! D16   D(6,1,3,9)             60.5843         estimate D2E/DX2                !
 ! D17   D(6,1,3,10)           -58.9757         estimate D2E/DX2                !
 ! D18   D(6,1,3,11)          -178.5419         estimate D2E/DX2                !
 ! D19   D(1,2,4,12)           -63.4511         estimate D2E/DX2                !
 ! D20   D(1,2,4,13)           176.0671         estimate D2E/DX2                !
 ! D21   D(7,2,4,12)            57.73           estimate D2E/DX2                !
 ! D22   D(7,2,4,13)           -62.7518         estimate D2E/DX2                !
 ! D23   D(8,2,4,12)           176.1433         estimate D2E/DX2                !
 ! D24   D(8,2,4,13)            55.6616         estimate D2E/DX2                !
 --------------------------------------------------------------------------------
 Trust Radius=3.00D-01 FncErr=1.00D-07 GrdErr=1.00D-06
 Number of steps in this run=     67 maximum allowed number of steps=    100.
 GradGradGradGradGradGradGradGradGradGradGradGradGradGradGradGradGradGrad

                          Input orientation:                          
 ---------------------------------------------------------------------
 Center     Atomic      Atomic             Coordinates (Angstroms)
 Number     Number       Type             X           Y           Z
 ---------------------------------------------------------------------
      1          6           0       -0.457500    0.390200    0.147100
      2          6           0        0.766700   -0.313000   -0.444800
      3          6           0       -1.740500   -0.367100   -0.182500
      4          6           0        2.040800    0.442700   -0.093200
      5          1           0       -0.352100    0.457400    1.252100
      6          1           0       -0.533000    1.421000   -0.263200
      7          1           0        0.672700   -0.374400   -1.551100
      8          1           0        0.839800   -1.343800   -0.035300
      9          1           0       -1.881000   -0.427600   -1.282900
     10          1           0       -2.609900    0.165300    0.257600
     11          1           0       -1.702100   -1.393900    0.239700
     12          1           0        2.029500    1.456200   -0.548100
     13          1           0        2.926600   -0.113100   -0.466300
 ---------------------------------------------------------------------
                    Distance matrix (angstroms):
                    1          2          3          4          5
     1  C    0.000000
     2  C    1.530850   0.000000
     3  C    1.525853   2.521464   0.000000
     4  C    2.510379   1.522510   3.868072   0.000000
     5  H    1.112048   2.173637   2.159984   2.745181   0.000000
     6  H    1.112023   2.174616   2.159136   2.758698   1.804822
     7  H    2.178497   1.111983   2.774284   2.159820   3.098393
     8  H    2.173249   1.111568   2.762890   2.153447   2.514428
     9  H    2.177165   2.779543   1.110982   4.189669   3.089820
    10  H    2.166937   3.481891   1.110403   4.672154   2.484354
    11  H    2.177296   2.780622   1.110876   4.182490   2.504948
    12  H    2.793712   2.176098   4.203687   1.110965   3.148069
    13  H    3.475874   2.169237   4.682615   1.110297   3.745430
                    6          7          8          9         10
     6  H    0.000000
     7  H    2.517113   0.000000
     8  H    3.095260   1.807016   0.000000
     9  H    2.504838   2.568296   3.130284   0.000000
    10  H    2.482243   3.786573   3.776719   1.804430   0.000000
    11  H    3.089234   3.144204   2.557223   1.812195   1.804308
    12  H    2.578529   2.489581   3.085182   4.402345   4.882582
    13  H    3.789927   2.514982   2.460715   4.886590   5.590561
                   11         12         13
    11  H    0.000000
    12  H    4.761149   0.000000
    13  H    4.854251   1.809470   0.000000
 Stoichiometry    C4H9(2)
 Framework group  C1[X(C4H9)]
 Deg. of freedom    33
 Full point group                 C1      NOp   1
 Largest Abelian subgroup         C1      NOp   1
 Largest concise Abelian subgroup C1      NOp   1
                         Standard orientation:                         
 ---------------------------------------------------------------------
 Center     Atomic      Atomic             Coordinates (Angstroms)
 Number     Number       Type             X           Y           Z
 ---------------------------------------------------------------------
      1          6           0        0.504786    0.530070   -0.079101
      2          6           0       -0.629643   -0.492201    0.028297
      3          6           0        1.867912   -0.145874    0.035853
      4          6           0       -1.982686    0.192796   -0.106205
      5          1           0        0.443775    1.054773   -1.057679
      6          1           0        0.408088    1.284516    0.732106
      7          1           0       -0.580811   -1.013552    1.009273
      8          1           0       -0.530613   -1.246722   -0.781933
      9          1           0        1.962835   -0.658652    1.016837
     10          1           0        2.669651    0.618180   -0.044331
     11          1           0        2.001245   -0.887440   -0.780448
     12          1           0       -2.142406    0.905313    0.731084
     13          1           0       -2.793973   -0.565165   -0.097974
 ---------------------------------------------------------------------
 Rotational constants (GHZ):     24.2353883      3.8541092      3.5952166
 Standard basis: 6-311+G(2df,2p) (5D, 7F)
 There are   217 symmetry adapted basis functions of A   symmetry.
 Integral buffers will be    131072 words long.
 Raffenetti 2 integral format.
 Two-electron integral symmetry is turned on.
   217 basis functions,   307 primitive gaussians,   237 cartesian basis functions
    17 alpha electrons       16 beta electrons
       nuclear repulsion energy       122.5881061225 Hartrees.
 NAtoms=   13 NActive=   13 NUniq=   13 SFac= 1.00D+00 NAtFMM=   50 NAOKFM=F Big=F
 One-electron integrals computed using PRISM.
 NBasis=   217 RedAO= T  NBF=   217
 NBsUse=   217 1.00D-06 NBFU=   217
 Harris functional with IExCor= 1009 diagonalized for initial guess.
 ExpMin= 4.38D-02 ExpMax= 4.56D+03 ExpMxC= 6.82D+02 IAcc=2 IRadAn=         0 AccDes= 0.00D+00
 HarFok:  IExCor= 1009 AccDes= 0.00D+00 IRadAn=         0 IDoV= 1
 ScaDFX=  1.000000  1.000000  1.000000  1.000000
 FoFCou: FMM=F IPFlag=           0 FMFlag=      100000 FMFlg1=           0
         NFxFlg=           0 DoJE=T BraDBF=F KetDBF=T FulRan=T
         Omega=  0.000000  0.000000  1.000000  0.000000  0.000000 ICntrl=     500 IOpCl=  0
         NMat0=    1 NMatS0=    1 NMatT0=    0 NMatD0=    1 NMtDS0=    0 NMtDT0=    0
         I1Cent=           4 NGrid=           0.
 Petite list used in FoFCou.
 Initial guess orbital symmetries:
 Alpha Orbitals:
       Occupied  (A) (A) (A) (A) (A) (A) (A) (A) (A) (A) (A) (A)
                 (A) (A) (A) (A) (A)
       Virtual   (A) (A) (A) (A) (A) (A) (A) (A) (A) (A) (A) (A)
                 (A) (A) (A) (A) (A) (A) (A) (A) (A) (A) (A) (A)
                 (A) (A) (A) (A) (A) (A) (A) (A) (A) (A) (A) (A)
                 (A) (A) (A) (A) (A) (A) (A) (A) (A) (A) (A) (A)
                 (A) (A) (A) (A) (A) (A) (A) (A) (A) (A) (A) (A)
                 (A) (A) (A) (A) (A) (A) (A) (A) (A) (A) (A) (A)
                 (A) (A) (A) (A) (A) (A) (A) (A) (A) (A) (A) (A)
                 (A) (A) (A) (A) (A) (A) (A) (A) (A) (A) (A) (A)
                 (A) (A) (A) (A) (A) (A) (A) (A) (A) (A) (A) (A)
                 (A) (A) (A) (A) (A) (A) (A) (A) (A) (A) (A) (A)
                 (A) (A) (A) (A) (A) (A) (A) (A) (A) (A) (A) (A)
                 (A) (A) (A) (A) (A) (A) (A) (A) (A) (A) (A) (A)
                 (A) (A) (A) (A) (A) (A) (A) (A) (A) (A) (A) (A)
                 (A) (A) (A) (A) (A) (A) (A) (A) (A) (A) (A) (A)
                 (A) (A) (A) (A) (A) (A) (A) (A) (A) (A) (A) (A)
                 (A) (A) (A) (A) (A) (A) (A) (A) (A) (A) (A) (A)
                 (A) (A) (A) (A) (A) (A) (A) (A)
 Beta  Orbitals:
       Occupied  (A) (A) (A) (A) (A) (A) (A) (A) (A) (A) (A) (A)
                 (A) (A) (A) (A)
       Virtual   (A) (A) (A) (A) (A) (A) (A) (A) (A) (A) (A) (A)
                 (A) (A) (A) (A) (A) (A) (A) (A) (A) (A) (A) (A)
                 (A) (A) (A) (A) (A) (A) (A) (A) (A) (A) (A) (A)
                 (A) (A) (A) (A) (A) (A) (A) (A) (A) (A) (A) (A)
                 (A) (A) (A) (A) (A) (A) (A) (A) (A) (A) (A) (A)
                 (A) (A) (A) (A) (A) (A) (A) (A) (A) (A) (A) (A)
                 (A) (A) (A) (A) (A) (A) (A) (A) (A) (A) (A) (A)
                 (A) (A) (A) (A) (A) (A) (A) (A) (A) (A) (A) (A)
                 (A) (A) (A) (A) (A) (A) (A) (A) (A) (A) (A) (A)
                 (A) (A) (A) (A) (A) (A) (A) (A) (A) (A) (A) (A)
                 (A) (A) (A) (A) (A) (A) (A) (A) (A) (A) (A) (A)
                 (A) (A) (A) (A) (A) (A) (A) (A) (A) (A) (A) (A)
                 (A) (A) (A) (A) (A) (A) (A) (A) (A) (A) (A) (A)
                 (A) (A) (A) (A) (A) (A) (A) (A) (A) (A) (A) (A)
                 (A) (A) (A) (A) (A) (A) (A) (A) (A) (A) (A) (A)
                 (A) (A) (A) (A) (A) (A) (A) (A) (A) (A) (A) (A)
                 (A) (A) (A) (A) (A) (A) (A) (A) (A)
 The electronic state of the initial guess is 2-A.
 Initial guess <Sx>= 0.0000 <Sy>= 0.0000 <Sz>= 0.5000 <S**2>= 0.7500 S= 0.5000
 Requested convergence on RMS density matrix=1.00D-08 within 128 cycles.
 Requested convergence on MAX density matrix=1.00D-06.
 Requested convergence on             energy=1.00D-06.
 No special actions if energy rises.
 SCF Done:  E(UM062X) =  -157.729744745     A.U. after   13 cycles
             Convg  =    0.4528D-08             -V/T =  2.0061
 <Sx>= 0.0000 <Sy>= 0.0000 <Sz>= 0.5000 <S**2>= 0.7544 S= 0.5022
 <L.S>= 0.000000000000E+00
 Annihilation of the first spin contaminant:
 S**2 before annihilation     0.7544,   after     0.7500

 **********************************************************************

            Population analysis using the SCF density.

 **********************************************************************

 Orbital symmetries:
 Alpha Orbitals:
       Occupied  (A) (A) (A) (A) (A) (A) (A) (A) (A) (A) (A) (A)
                 (A) (A) (A) (A) (A)
       Virtual   (A) (A) (A) (A) (A) (A) (A) (A) (A) (A) (A) (A)
                 (A) (A) (A) (A) (A) (A) (A) (A) (A) (A) (A) (A)
                 (A) (A) (A) (A) (A) (A) (A) (A) (A) (A) (A) (A)
                 (A) (A) (A) (A) (A) (A) (A) (A) (A) (A) (A) (A)
                 (A) (A) (A) (A) (A) (A) (A) (A) (A) (A) (A) (A)
                 (A) (A) (A) (A) (A) (A) (A) (A) (A) (A) (A) (A)
                 (A) (A) (A) (A) (A) (A) (A) (A) (A) (A) (A) (A)
                 (A) (A) (A) (A) (A) (A) (A) (A) (A) (A) (A) (A)
                 (A) (A) (A) (A) (A) (A) (A) (A) (A) (A) (A) (A)
                 (A) (A) (A) (A) (A) (A) (A) (A) (A) (A) (A) (A)
                 (A) (A) (A) (A) (A) (A) (A) (A) (A) (A) (A) (A)
                 (A) (A) (A) (A) (A) (A) (A) (A) (A) (A) (A) (A)
                 (A) (A) (A) (A) (A) (A) (A) (A) (A) (A) (A) (A)
                 (A) (A) (A) (A) (A) (A) (A) (A) (A) (A) (A) (A)
                 (A) (A) (A) (A) (A) (A) (A) (A) (A) (A) (A) (A)
                 (A) (A) (A) (A) (A) (A) (A) (A) (A) (A) (A) (A)
                 (A) (A) (A) (A) (A) (A) (A) (A)
 Beta  Orbitals:
       Occupied  (A) (A) (A) (A) (A) (A) (A) (A) (A) (A) (A) (A)
                 (A) (A) (A) (A)
       Virtual   (A) (A) (A) (A) (A) (A) (A) (A) (A) (A) (A) (A)
                 (A) (A) (A) (A) (A) (A) (A) (A) (A) (A) (A) (A)
                 (A) (A) (A) (A) (A) (A) (A) (A) (A) (A) (A) (A)
                 (A) (A) (A) (A) (A) (A) (A) (A) (A) (A) (A) (A)
                 (A) (A) (A) (A) (A) (A) (A) (A) (A) (A) (A) (A)
                 (A) (A) (A) (A) (A) (A) (A) (A) (A) (A) (A) (A)
                 (A) (A) (A) (A) (A) (A) (A) (A) (A) (A) (A) (A)
                 (A) (A) (A) (A) (A) (A) (A) (A) (A) (A) (A) (A)
                 (A) (A) (A) (A) (A) (A) (A) (A) (A) (A) (A) (A)
                 (A) (A) (A) (A) (A) (A) (A) (A) (A) (A) (A) (A)
                 (A) (A) (A) (A) (A) (A) (A) (A) (A) (A) (A) (A)
                 (A) (A) (A) (A) (A) (A) (A) (A) (A) (A) (A) (A)
                 (A) (A) (A) (A) (A) (A) (A) (A) (A) (A) (A) (A)
                 (A) (A) (A) (A) (A) (A) (A) (A) (A) (A) (A) (A)
                 (A) (A) (A) (A) (A) (A) (A) (A) (A) (A) (A) (A)
                 (A) (A) (A) (A) (A) (A) (A) (A) (A) (A) (A) (A)
                 (A) (A) (A) (A) (A) (A) (A) (A) (A)
 The electronic state is 2-A.
 Alpha  occ. eigenvalues --  -10.55132 -10.53776 -10.53279 -10.52635  -0.89679
 Alpha  occ. eigenvalues --   -0.81483  -0.70455  -0.65124  -0.54247  -0.49663
 Alpha  occ. eigenvalues --   -0.48693  -0.46802  -0.42681  -0.39854  -0.39085
 Alpha  occ. eigenvalues --   -0.38011  -0.29332
 Alpha virt. eigenvalues --    0.02095   0.03094   0.03825   0.04443   0.06112
 Alpha virt. eigenvalues --    0.07102   0.07708   0.07947   0.08231   0.09878
 Alpha virt. eigenvalues --    0.10665   0.11344   0.13394   0.15681   0.17181
 Alpha virt. eigenvalues --    0.18633   0.19130   0.20597   0.21168   0.21889
 Alpha virt. eigenvalues --    0.22873   0.23875   0.24690   0.27665   0.28771
 Alpha virt. eigenvalues --    0.29063   0.29848   0.31321   0.41648   0.42949
 Alpha virt. eigenvalues --    0.43279   0.44598   0.46850   0.48467   0.50666
 Alpha virt. eigenvalues --    0.51737   0.52720   0.54020   0.54540   0.55712
 Alpha virt. eigenvalues --    0.57146   0.58436   0.61027   0.61443   0.62768
 Alpha virt. eigenvalues --    0.62923   0.64478   0.66142   0.67591   0.68330
 Alpha virt. eigenvalues --    0.70464   0.71400   0.76381   0.79264   0.80879
 Alpha virt. eigenvalues --    0.81883   0.86249   0.87622   0.89903   0.91916
 Alpha virt. eigenvalues --    0.95419   0.97835   0.99076   1.02516   1.04621
 Alpha virt. eigenvalues --    1.12055   1.13172   1.14437   1.15958   1.17305
 Alpha virt. eigenvalues --    1.18146   1.19969   1.20791   1.22534   1.24394
 Alpha virt. eigenvalues --    1.25500   1.28562   1.29732   1.30323   1.31464
 Alpha virt. eigenvalues --    1.34418   1.37211   1.41454   1.42705   1.43490
 Alpha virt. eigenvalues --    1.44004   1.44851   1.45041   1.48896   1.51739
 Alpha virt. eigenvalues --    1.53193   1.55350   1.56943   1.60393   1.60918
 Alpha virt. eigenvalues --    1.61595   1.62667   1.67560   1.69720   1.71039
 Alpha virt. eigenvalues --    2.37995   2.45090   2.46593   2.47958   2.52273
 Alpha virt. eigenvalues --    2.58042   2.62625   2.64919   2.70752   2.73756
 Alpha virt. eigenvalues --    2.75311   2.77874   2.81153   2.82316   2.85602
 Alpha virt. eigenvalues --    2.88768   2.88838   2.91503   2.97172   2.98139
 Alpha virt. eigenvalues --    3.00698   3.01301   3.03900   3.06219   3.12514
 Alpha virt. eigenvalues --    3.14272   3.14707   3.17137   3.20104   3.22680
 Alpha virt. eigenvalues --    3.25182   3.28142   3.29815   3.32735   3.34950
 Alpha virt. eigenvalues --    3.36156   3.36994   3.39829   3.45016   3.48937
 Alpha virt. eigenvalues --    3.53183   3.57012   3.58916   3.59995   3.61455
 Alpha virt. eigenvalues --    3.65793   3.67822   3.70097   3.72780   3.77109
 Alpha virt. eigenvalues --    3.79119   3.80430   3.85720   3.88464   3.90237
 Alpha virt. eigenvalues --    3.94734   3.95825   3.97186   3.97688   4.00923
 Alpha virt. eigenvalues --    4.05542   4.07039   4.08756   4.10825   4.15320
 Alpha virt. eigenvalues --    4.16711   4.18629   4.20496   4.23539   4.25666
 Alpha virt. eigenvalues --    4.28928   4.32453   4.34948   4.38905   4.40456
 Alpha virt. eigenvalues --    4.43504   4.48895   4.49682   4.51653   4.52624
 Alpha virt. eigenvalues --    4.54000   4.58838   4.63803   4.64905   4.74060
 Alpha virt. eigenvalues --    4.76458   5.00975   5.18156   5.34533   5.37707
 Alpha virt. eigenvalues --    5.43040   5.47436   5.50544   5.54877   5.56392
 Alpha virt. eigenvalues --    5.59172  24.10919  24.24002  24.33520  24.41654
  Beta  occ. eigenvalues --  -10.54254 -10.53805 -10.53260 -10.52635  -0.89073
  Beta  occ. eigenvalues --   -0.80166  -0.69047  -0.63973  -0.53680  -0.48973
  Beta  occ. eigenvalues --   -0.48031  -0.45742  -0.42098  -0.39451  -0.38826
  Beta  occ. eigenvalues --   -0.37520
  Beta virt. eigenvalues --   -0.04671   0.01987   0.02991   0.03766   0.04560
  Beta virt. eigenvalues --    0.06088   0.07080   0.07744   0.07997   0.08691
  Beta virt. eigenvalues --    0.09029   0.10774   0.11913   0.12841   0.15590
  Beta virt. eigenvalues --    0.16195   0.18503   0.18943   0.20689   0.21522
  Beta virt. eigenvalues --    0.21967   0.22855   0.24063   0.24984   0.27667
  Beta virt. eigenvalues --    0.28972   0.29505   0.29986   0.31756   0.41679
  Beta virt. eigenvalues --    0.42905   0.43430   0.44816   0.46947   0.48955
  Beta virt. eigenvalues --    0.50930   0.51227   0.53067   0.54142   0.55624
  Beta virt. eigenvalues --    0.56238   0.57238   0.58711   0.60757   0.60983
  Beta virt. eigenvalues --    0.62377   0.63188   0.64986   0.66402   0.67742
  Beta virt. eigenvalues --    0.67977   0.70034   0.71488   0.75091   0.79063
  Beta virt. eigenvalues --    0.80809   0.81814   0.86135   0.87459   0.89902
  Beta virt. eigenvalues --    0.91971   0.95315   0.97383   0.98905   1.02343
  Beta virt. eigenvalues --    1.04427   1.12262   1.13275   1.14190   1.15938
  Beta virt. eigenvalues --    1.17610   1.18140   1.20048   1.20868   1.22597
  Beta virt. eigenvalues --    1.24578   1.25651   1.28442   1.29838   1.30834
  Beta virt. eigenvalues --    1.31420   1.34185   1.37322   1.41796   1.42714
  Beta virt. eigenvalues --    1.43581   1.43823   1.44833   1.45161   1.48979
  Beta virt. eigenvalues --    1.52070   1.53366   1.55471   1.57203   1.60453
  Beta virt. eigenvalues --    1.60951   1.61588   1.62764   1.67635   1.70078
  Beta virt. eigenvalues --    1.70761   2.38348   2.45607   2.47282   2.48173
  Beta virt. eigenvalues --    2.52720   2.58458   2.62995   2.65387   2.72007
  Beta virt. eigenvalues --    2.74820   2.75659   2.79247   2.81612   2.84316
  Beta virt. eigenvalues --    2.87503   2.89515   2.90164   2.93088   2.98239
  Beta virt. eigenvalues --    2.98902   3.02034   3.03282   3.04850   3.08112
  Beta virt. eigenvalues --    3.13482   3.14767   3.16498   3.19824   3.21010
  Beta virt. eigenvalues --    3.24465   3.26202   3.30182   3.30292   3.33930
  Beta virt. eigenvalues --    3.35467   3.37045   3.37637   3.42202   3.49343
  Beta virt. eigenvalues --    3.50887   3.55078   3.57702   3.59934   3.61774
  Beta virt. eigenvalues --    3.63804   3.66065   3.68341   3.71137   3.73519
  Beta virt. eigenvalues --    3.77944   3.79374   3.81749   3.86091   3.88851
  Beta virt. eigenvalues --    3.91214   3.95318   3.96185   3.97431   3.98148
  Beta virt. eigenvalues --    4.01936   4.06610   4.07931   4.10099   4.12129
  Beta virt. eigenvalues --    4.16431   4.17029   4.18928   4.20817   4.23796
  Beta virt. eigenvalues --    4.26134   4.30918   4.33289   4.35059   4.39536
  Beta virt. eigenvalues --    4.41393   4.45212   4.49606   4.49920   4.52067
  Beta virt. eigenvalues --    4.53433   4.54756   4.58964   4.65156   4.66046
  Beta virt. eigenvalues --    4.74302   4.76826   5.02239   5.19517   5.35886
  Beta virt. eigenvalues --    5.39737   5.44252   5.50529   5.51470   5.54778
  Beta virt. eigenvalues --    5.56603   5.59202  24.11915  24.24451  24.33618
  Beta virt. eigenvalues --   24.41708
          Condensed to atoms (all electrons):
              1          2          3          4          5          6
     1  C    5.386118  -0.061946   0.010490   0.153191   0.459399   0.456953
     2  C   -0.061946   5.328687   0.168998   0.071739  -0.054941  -0.047529
     3  C    0.010490   0.168998   5.274726  -0.097708  -0.051816  -0.041031
     4  C    0.153191   0.071739  -0.097708   5.533163   0.005881  -0.012142
     5  H    0.459399  -0.054941  -0.051816   0.005881   0.528027  -0.032967
     6  H    0.456953  -0.047529  -0.041031  -0.012142  -0.032967   0.534841
     7  H   -0.054880   0.454064  -0.000342  -0.053637   0.005714  -0.008247
     8  H   -0.044633   0.456588  -0.003414  -0.055291  -0.007428   0.005633
     9  H    0.003215  -0.028656   0.390680   0.004255   0.006228  -0.008215
    10  H   -0.056347   0.020419   0.415989   0.000658  -0.004865  -0.004969
    11  H   -0.003344  -0.027912   0.401450   0.001419  -0.007997   0.006157
    12  H   -0.036959   0.013779   0.003612   0.371803  -0.000705   0.003160
    13  H    0.019232  -0.059998   0.001683   0.407496   0.000026  -0.000036
              7          8          9         10         11         12
     1  C   -0.054880  -0.044633   0.003215  -0.056347  -0.003344  -0.036959
     2  C    0.454064   0.456588  -0.028656   0.020419  -0.027912   0.013779
     3  C   -0.000342  -0.003414   0.390680   0.415989   0.401450   0.003612
     4  C   -0.053637  -0.055291   0.004255   0.000658   0.001419   0.371803
     5  H    0.005714  -0.007428   0.006228  -0.004865  -0.007997  -0.000705
     6  H   -0.008247   0.005633  -0.008215  -0.004969   0.006157   0.003160
     7  H    0.551208  -0.037963   0.002440  -0.000064  -0.000769  -0.007922
     8  H   -0.037963   0.541498  -0.000649  -0.000043   0.002461   0.006374
     9  H    0.002440  -0.000649   0.561295  -0.024701  -0.034730  -0.000021
    10  H   -0.000064  -0.000043  -0.024701   0.548100  -0.024452  -0.000016
    11  H   -0.000769   0.002461  -0.034730  -0.024452   0.556367  -0.000012
    12  H   -0.007922   0.006374  -0.000021  -0.000016  -0.000012   0.544450
    13  H   -0.002235  -0.006692  -0.000020   0.000018  -0.000014  -0.033412
             13
     1  C    0.019232
     2  C   -0.059998
     3  C    0.001683
     4  C    0.407496
     5  H    0.000026
     6  H   -0.000036
     7  H   -0.002235
     8  H   -0.006692
     9  H   -0.000020
    10  H    0.000018
    11  H   -0.000014
    12  H   -0.033412
    13  H    0.532450
 Mulliken atomic charges:
              1
     1  C   -0.230488
     2  C   -0.233291
     3  C   -0.473316
     4  C   -0.330828
     5  H    0.155443
     6  H    0.148391
     7  H    0.152633
     8  H    0.143560
     9  H    0.128880
    10  H    0.130272
    11  H    0.131374
    12  H    0.135868
    13  H    0.141503
 Sum of Mulliken atomic charges =   0.00000
 Mulliken charges with hydrogens summed into heavy atoms:
              1
     1  C    0.073346
     2  C    0.062902
     3  C   -0.082791
     4  C   -0.053457
 Sum of Mulliken charges with hydrogens summed into heavy atoms =   0.00000
          Atomic-Atomic Spin Densities.
              1          2          3          4          5          6
     1  C    0.116555  -0.047329  -0.047684   0.004077   0.010469  -0.003573
     2  C   -0.047329   0.019719   0.023603  -0.052917  -0.001675   0.002247
     3  C   -0.047684   0.023603   0.028202  -0.004860  -0.000337   0.000061
     4  C    0.004077  -0.052917  -0.004860   1.127474  -0.004543  -0.000027
     5  H    0.010469  -0.001675  -0.000337  -0.004543  -0.013318  -0.000189
     6  H   -0.003573   0.002247   0.000061  -0.000027  -0.000189   0.000507
     7  H   -0.016532   0.035777   0.002225  -0.033948   0.000437  -0.001095
     8  H    0.013481  -0.003973  -0.001294  -0.011005  -0.000435   0.000152
     9  H    0.004647  -0.002302   0.000209  -0.001402  -0.000280   0.000025
    10  H   -0.001372  -0.000055   0.001380  -0.000266   0.000052  -0.000006
    11  H   -0.000574   0.001047  -0.001296   0.000678  -0.000105   0.000060
    12  H    0.003890   0.003728  -0.001391  -0.014706   0.000085   0.000122
    13  H    0.002156   0.002633   0.000230  -0.010818  -0.000032   0.000022
              7          8          9         10         11         12
     1  C   -0.016532   0.013481   0.004647  -0.001372  -0.000574   0.003890
     2  C    0.035777  -0.003973  -0.002302  -0.000055   0.001047   0.003728
     3  C    0.002225  -0.001294   0.000209   0.001380  -0.001296  -0.001391
     4  C   -0.033948  -0.011005  -0.001402  -0.000266   0.000678  -0.014706
     5  H    0.000437  -0.000435  -0.000280   0.000052  -0.000105   0.000085
     6  H   -0.001095   0.000152   0.000025  -0.000006   0.000060   0.000122
     7  H    0.069209  -0.009434  -0.000203  -0.000023  -0.000060  -0.003502
     8  H   -0.009434   0.019462   0.000127   0.000012  -0.000031   0.000590
     9  H   -0.000203   0.000127  -0.002209   0.000202  -0.000167   0.000032
    10  H   -0.000023   0.000012   0.000202  -0.000385   0.000021   0.000001
    11  H   -0.000060  -0.000031  -0.000167   0.000021   0.000195   0.000001
    12  H   -0.003502   0.000590   0.000032   0.000001   0.000001  -0.017890
    13  H   -0.002743   0.001265   0.000001   0.000000   0.000000   0.004343
             13
     1  C    0.002156
     2  C    0.002633
     3  C    0.000230
     4  C   -0.010818
     5  H   -0.000032
     6  H    0.000022
     7  H   -0.002743
     8  H    0.001265
     9  H    0.000001
    10  H    0.000000
    11  H    0.000000
    12  H    0.004343
    13  H   -0.023327
 Mulliken atomic spin densities:
              1
     1  C    0.038212
     2  C   -0.019498
     3  C   -0.000954
     4  C    0.997737
     5  H   -0.009871
     6  H   -0.001693
     7  H    0.040108
     8  H    0.008917
     9  H   -0.001320
    10  H   -0.000439
    11  H   -0.000232
    12  H   -0.024698
    13  H   -0.026268
 Sum of Mulliken atomic spin densities =   1.00000
 Electronic spatial extent (au):  <R**2>=            399.3758
 Charge=              0.0000 electrons
 Dipole moment (field-independent basis, Debye):
    X=              0.2431    Y=             -0.3441    Z=              0.4999  Tot=              0.6538
 Quadrupole moment (field-independent basis, Debye-Ang):
   XX=            -29.6375   YY=            -28.3520   ZZ=            -27.8754
   XY=              1.2439   XZ=             -1.2378   YZ=              0.5881
 Traceless Quadrupole moment (field-independent basis, Debye-Ang):
   XX=             -1.0159   YY=              0.2696   ZZ=              0.7462
   XY=              1.2439   XZ=             -1.2378   YZ=              0.5881
 Octapole moment (field-independent basis, Debye-Ang**2):
  XXX=              2.0206  YYY=             -0.6905  ZZZ=              1.3743  XYY=              0.8898
  XXY=             -1.6105  XXZ=              2.4555  XZZ=              1.7476  YZZ=             -0.7374
  YYZ=              0.5331  XYZ=             -1.1762
 Hexadecapole moment (field-independent basis, Debye-Ang**3):
 XXXX=           -441.8547 YYYY=            -92.2155 ZZZZ=            -57.4302 XXXY=             13.1077
 XXXZ=             -7.3894 YYYX=              3.2545 YYYZ=              2.2521 ZZZX=             -2.6113
 ZZZY=              0.2502 XXYY=            -85.8190 XXZZ=            -84.3877 YYZZ=            -22.3144
 XXYZ=              2.8749 YYXZ=             -1.9795 ZZXY=             -0.3703
 N-N= 1.225881061225D+02 E-N=-9.093030703065D+02  KE= 2.345018501568D+02
                          Isotropic Fermi Contact Couplings
        Atom                 a.u.       MegaHertz       Gauss      10(-4) cm-1
     1  C(13)              0.01458      16.38575       5.84684       5.46570
     2  C(13)             -0.01564     -17.58329      -6.27416      -5.86515
     3  C(13)             -0.00115      -1.28731      -0.45935      -0.42940
     4  C(13)              0.39818     447.62972     159.72541     149.31320
     5  H(1)              -0.00032      -1.42613      -0.50888      -0.47571
     6  H(1)              -0.00027      -1.19507      -0.42643      -0.39863
     7  H(1)               0.02299     102.77154      36.67144      34.28090
     8  H(1)               0.00366      16.34306       5.83161       5.45146
     9  H(1)               0.00026       1.14422       0.40829       0.38167
    10  H(1)              -0.00016      -0.70257      -0.25069      -0.23435
    11  H(1)               0.00003       0.13989       0.04992       0.04666
    12  H(1)              -0.00475     -21.24141      -7.57946      -7.08537
    13  H(1)              -0.00563     -25.17347      -8.98252      -8.39696
 --------------------------------------------------------
       Center         ----  Spin Dipole Couplings  ----
                      3XX-RR        3YY-RR        3ZZ-RR
 --------------------------------------------------------
     1   Atom        0.019721     -0.009455     -0.010266
     2   Atom        0.001377     -0.003228      0.001851
     3   Atom        0.004374     -0.002800     -0.001574
     4   Atom       -0.492984     -0.127588      0.620573
     5   Atom        0.011098     -0.005583     -0.005515
     6   Atom        0.005995     -0.002979     -0.003016
     7   Atom        0.002533     -0.002479     -0.000054
     8   Atom        0.002323      0.005785     -0.008109
     9   Atom        0.003471     -0.002014     -0.001457
    10   Atom        0.002833     -0.001348     -0.001485
    11   Atom        0.003271     -0.001541     -0.001730
    12   Atom       -0.056857      0.015727      0.041130
    13   Atom        0.010814      0.009209     -0.020023
 --------------------------------------------------------
                        XY            XZ            YZ
 --------------------------------------------------------
     1   Atom        0.007846      0.007667      0.001334
     2   Atom       -0.018902      0.018152     -0.018258
     3   Atom       -0.001251      0.002005     -0.001437
     4   Atom       -0.012501      0.027309     -0.633383
     5   Atom        0.005044     -0.004707     -0.002967
     6   Atom        0.005319      0.005821      0.002397
     7   Atom       -0.008470      0.005250     -0.008266
     8   Atom       -0.014336     -0.004437      0.004206
     9   Atom       -0.000658      0.001243     -0.000652
    10   Atom        0.000484      0.000222     -0.000166
    11   Atom       -0.001585     -0.000870      0.000185
    12   Atom       -0.012259     -0.012397      0.040577
    13   Atom        0.062953      0.006470     -0.016165
 --------------------------------------------------------


 ---------------------------------------------------------------------------------
              Anisotropic Spin Dipole Couplings in Principal Axis System
 ---------------------------------------------------------------------------------

       Atom             a.u.   MegaHertz   Gauss  10(-4) cm-1        Axes

              Baa    -0.0124    -1.662    -0.593    -0.554 -0.3097  0.4473  0.8390
     1 C(13)  Bbb    -0.0111    -1.489    -0.531    -0.497 -0.0964  0.8631 -0.4957
              Bcc     0.0235     3.151     1.124     1.051  0.9459  0.2344  0.2242
 
              Baa    -0.0205    -2.748    -0.981    -0.917  0.4746  0.8300  0.2929
     2 C(13)  Bbb    -0.0165    -2.210    -0.789    -0.737 -0.6510  0.1070  0.7515
              Bcc     0.0370     4.958     1.769     1.654  0.5925 -0.5473  0.5911
 
              Baa    -0.0037    -0.503    -0.180    -0.168 -0.0096  0.8303  0.5573
     3 C(13)  Bbb    -0.0016    -0.210    -0.075    -0.070 -0.3695 -0.5208  0.7695
              Bcc     0.0053     0.713     0.254     0.238  0.9292 -0.1985  0.3118
 
              Baa    -0.4948   -66.403   -23.694   -22.150  0.9057 -0.3587 -0.2258
     4 C(13)  Bbb    -0.4879   -65.466   -23.360   -21.837  0.4234  0.7910  0.4416
              Bcc     0.9827   131.869    47.054    43.987  0.0203 -0.4956  0.8683
 
              Baa    -0.0085    -4.547    -1.623    -1.517 -0.0239  0.7301  0.6829
     5 H(1)   Bbb    -0.0054    -2.907    -1.037    -0.970  0.3838 -0.6240  0.6806
              Bcc     0.0140     7.455     2.660     2.487  0.9231  0.2784 -0.2654
 
              Baa    -0.0059    -3.163    -1.128    -1.055 -0.5192  0.2805  0.8073
     6 H(1)   Bbb    -0.0053    -2.835    -1.012    -0.946 -0.1931  0.8817 -0.4305
              Bcc     0.0112     5.998     2.140     2.001  0.8325  0.3794  0.4037
 
              Baa    -0.0107    -5.713    -2.039    -1.906  0.3372  0.8170  0.4678
     7 H(1)   Bbb    -0.0040    -2.147    -0.766    -0.716  0.7044  0.1107 -0.7011
              Bcc     0.0147     7.860     2.805     2.622  0.6246 -0.5659  0.5382
 
              Baa    -0.0106    -5.663    -2.021    -1.889  0.7397  0.5456  0.3940
     8 H(1)   Bbb    -0.0092    -4.913    -1.753    -1.639 -0.1708 -0.4141  0.8941
              Bcc     0.0198    10.577     3.774     3.528 -0.6509  0.7286  0.2131
 
              Baa    -0.0024    -1.306    -0.466    -0.436 -0.0298  0.8176  0.5751
     9 H(1)   Bbb    -0.0014    -0.761    -0.271    -0.254 -0.2737 -0.5600  0.7820
              Bcc     0.0039     2.067     0.737     0.689  0.9613 -0.1341  0.2405
 
              Baa    -0.0016    -0.877    -0.313    -0.293 -0.1051  0.6122  0.7837
    10 H(1)   Bbb    -0.0013    -0.669    -0.239    -0.223 -0.0591  0.7828 -0.6194
              Bcc     0.0029     1.546     0.552     0.516  0.9927  0.1114  0.0461
 
              Baa    -0.0020    -1.091    -0.389    -0.364  0.3206  0.8704  0.3736
    11 H(1)   Bbb    -0.0018    -0.982    -0.350    -0.328  0.0305 -0.4036  0.9144
              Bcc     0.0039     2.073     0.740     0.692  0.9467 -0.2818 -0.1559
 
              Baa    -0.0593   -31.631   -11.287   -10.551  0.9898  0.1224  0.0727
    12 H(1)   Bbb    -0.0140    -7.443    -2.656    -2.483 -0.0546  0.7980 -0.6002
              Bcc     0.0732    39.075    13.943    13.034 -0.1315  0.5901  0.7966
 
              Baa    -0.0595   -31.759   -11.332   -10.594 -0.6362  0.6719  0.3792
    13 H(1)   Bbb    -0.0139    -7.440    -2.655    -2.482  0.3177 -0.2197  0.9224
              Bcc     0.0735    39.199    13.987    13.076  0.7031  0.7073 -0.0736
 

 ---------------------------------------------------------------------------------

 Calling FoFJK, ICntrl=      2127 FMM=F ISym2X=0 I1Cent= 0 IOpClX= 1 NMat=1 NMatS=1 NMatT=0.
 ***** Axes restored to original set *****
 -------------------------------------------------------------------
 Center     Atomic                   Forces (Hartrees/Bohr)
 Number     Number              X              Y              Z
 -------------------------------------------------------------------
      1        6          -0.004547416    0.000160519   -0.000037396
      2        6           0.007782030    0.004063099    0.020730823
      3        6          -0.009328614    0.000532865    0.001338315
      4        6           0.000554066   -0.007671061   -0.054079638
      5        1           0.000902714    0.001877266   -0.013163100
      6        1           0.003141924   -0.010131093    0.006815175
      7        1           0.001247157   -0.001059413    0.009771444
      8        1          -0.003384002    0.009164408   -0.007711896
      9        1           0.000116669   -0.001154121    0.012987961
     10        1           0.007526131   -0.008961765   -0.006537224
     11        1          -0.002046778    0.011285693   -0.006529039
     12        1           0.002052394   -0.006424091    0.018589285
     13        1          -0.004016274    0.008317696    0.017825290
 -------------------------------------------------------------------
 Cartesian Forces:  Max     0.054079638 RMS     0.011884098

 GradGradGradGradGradGradGradGradGradGradGradGradGradGradGradGradGradGrad
 Berny optimization.
 Internal  Forces:  Max     0.019131183 RMS     0.006994389
 Search for a local minimum.
 Step number   1 out of a maximum of   67
 All quantities printed in internal units (Hartrees-Bohrs-Radians)
 Swaping is turned off.
 Second derivative matrix not updated -- first step.
 ITU=  0
     Eigenvalues ---    0.00358   0.00424   0.00468   0.03762   0.03866
     Eigenvalues ---    0.04323   0.04936   0.05432   0.05671   0.05790
     Eigenvalues ---    0.08040   0.08998   0.11977   0.12565   0.16000
     Eigenvalues ---    0.16000   0.16000   0.16000   0.16000   0.21950
     Eigenvalues ---    0.21977   0.29345   0.29810   0.30126   0.32384
     Eigenvalues ---    0.32387   0.32391   0.32435   0.32496   0.32498
     Eigenvalues ---    0.32507   0.32557   0.32569
 Quadratic step=6.833D-01 exceeds max=3.000D-01 adjusted using Lamda=-5.778D-02.
 Angle between NR and scaled steps=  17.43 degrees.
 Angle between quadratic step and forces=  32.54 degrees.
 Linear search not attempted -- option 19 set.
 Iteration  1 RMS(Cart)=  0.03832589 RMS(Int)=  0.00409146
 Iteration  2 RMS(Cart)=  0.00319301 RMS(Int)=  0.00287524
 Iteration  3 RMS(Cart)=  0.00002261 RMS(Int)=  0.00287518
 Iteration  4 RMS(Cart)=  0.00000031 RMS(Int)=  0.00287518
 Variable       Old X    -DE/DX   Delta X   Delta X   Delta X     New X
                                 (Linear)    (Quad)   (Total)
    R1        2.89289  -0.00154   0.00000  -0.00438  -0.00438   2.88851
    R2        2.88344   0.00203   0.00000   0.00570   0.00570   2.88914
    R3        2.10147  -0.01289   0.00000  -0.03378  -0.03378   2.06769
    R4        2.10142  -0.01211   0.00000  -0.03173  -0.03173   2.06969
    R5        2.87713  -0.00812   0.00000  -0.02263  -0.02263   2.85450
    R6        2.10134  -0.00978   0.00000  -0.02562  -0.02562   2.07573
    R7        2.10056  -0.01156   0.00000  -0.03024  -0.03024   2.07032
    R8        2.09945  -0.01282   0.00000  -0.03348  -0.03348   2.06597
    R9        2.09836  -0.01278   0.00000  -0.03335  -0.03335   2.06501
   R10        2.09925  -0.01298   0.00000  -0.03390  -0.03390   2.06535
   R11        2.09942  -0.01349   0.00000  -0.03523  -0.03523   2.06419
   R12        2.09816  -0.01336   0.00000  -0.03485  -0.03485   2.06331
    A1        1.94004   0.00528   0.00000   0.02241   0.02237   1.96241
    A2        1.91363  -0.00253   0.00000  -0.01220  -0.01241   1.90122
    A3        1.91499  -0.00232   0.00000  -0.01101  -0.01122   1.90377
    A4        1.90110   0.00016   0.00000   0.00730   0.00737   1.90847
    A5        1.89998  -0.00005   0.00000   0.00616   0.00622   1.90620
    A6        1.89341  -0.00064   0.00000  -0.01326  -0.01343   1.87998
    A7        1.93042   0.00903   0.00000   0.03661   0.03646   1.96688
    A8        1.92030  -0.00222   0.00000  -0.01074  -0.01069   1.90962
    A9        1.91360  -0.00277   0.00000  -0.00716  -0.00768   1.90591
   A10        1.90488  -0.00369   0.00000  -0.01593  -0.01579   1.88909
   A11        1.89671  -0.00002   0.00000   0.01183   0.01162   1.90833
   A12        1.89744  -0.00046   0.00000  -0.01522  -0.01533   1.88212
   A13        1.92550   0.00176   0.00000   0.00720   0.00712   1.93262
   A14        1.91215   0.00539   0.00000   0.02653   0.02637   1.93852
   A15        1.92579   0.00158   0.00000   0.00634   0.00627   1.93206
   A16        1.89617  -0.00308   0.00000  -0.01237  -0.01254   1.88363
   A17        1.90761  -0.00279   0.00000  -0.01622  -0.01621   1.89140
   A18        1.89611  -0.00302   0.00000  -0.01215  -0.01230   1.88381
   A19        1.92808   0.01492   0.00000   0.09530   0.08527   2.01335
   A20        1.91938   0.01913   0.00000   0.11488   0.10490   2.02428
   A21        1.90413  -0.00380   0.00000   0.03456   0.02005   1.92418
    D1       -3.12865  -0.00146   0.00000  -0.01326  -0.01327   3.14127
    D2        1.04869  -0.00124   0.00000  -0.01002  -0.00995   1.03874
    D3       -1.03729   0.00241   0.00000   0.01978   0.01974  -1.01755
    D4       -1.02571   0.00046   0.00000   0.00222   0.00210  -1.02361
    D5       -3.13155   0.00068   0.00000   0.00546   0.00541  -3.12614
    D6        1.06565   0.00433   0.00000   0.03525   0.03510   1.10076
    D7        1.05209  -0.00327   0.00000  -0.02811  -0.02803   1.02406
    D8       -1.05375  -0.00305   0.00000  -0.02487  -0.02471  -1.07847
    D9       -3.13973   0.00060   0.00000   0.00493   0.00498  -3.13475
   D10       -1.05389   0.00060   0.00000   0.00523   0.00528  -1.04861
   D11       -3.14060  -0.00007   0.00000  -0.00062  -0.00061  -3.14122
   D12        1.05576  -0.00071   0.00000  -0.00622  -0.00625   1.04951
   D13        3.11897   0.00031   0.00000   0.00146   0.00144   3.12041
   D14        1.03225  -0.00036   0.00000  -0.00438  -0.00445   1.02780
   D15       -1.05457  -0.00100   0.00000  -0.00998  -0.01009  -1.06466
   D16        1.05740   0.00102   0.00000   0.00970   0.00981   1.06720
   D17       -1.02932   0.00035   0.00000   0.00386   0.00392  -1.02540
   D18       -3.11614  -0.00029   0.00000  -0.00174  -0.00172  -3.11787
   D19       -1.10743   0.00939   0.00000   0.10084   0.10421  -1.00322
   D20        3.07295  -0.00782   0.00000  -0.07766  -0.08060   2.99235
   D21        1.00758   0.00996   0.00000   0.10033   0.10347   1.11105
   D22       -1.09523  -0.00725   0.00000  -0.07817  -0.08134  -1.17657
   D23        3.07428   0.00729   0.00000   0.07973   0.08269  -3.12622
   D24        0.97148  -0.00993   0.00000  -0.09877  -0.10213   0.86935
         Item               Value     Threshold  Converged?
 Maximum Force            0.019131     0.000002     NO 
 RMS     Force            0.006994     0.000001     NO 
 Maximum Displacement     0.115894     0.000006     NO 
 RMS     Displacement     0.037040     0.000004     NO 
 Predicted change in Energy=-9.550583D-03
 GradGradGradGradGradGradGradGradGradGradGradGradGradGradGradGradGradGrad

                          Input orientation:                          
 ---------------------------------------------------------------------
 Center     Atomic      Atomic             Coordinates (Angstroms)
 Number     Number       Type             X           Y           Z
 ---------------------------------------------------------------------
      1          6           0       -0.463598    0.383714    0.134638
      2          6           0        0.765763   -0.307831   -0.454306
      3          6           0       -1.759071   -0.367815   -0.172587
      4          6           0        2.049159    0.430238   -0.154529
      5          1           0       -0.339976    0.464856    1.218773
      6          1           0       -0.531301    1.399205   -0.269992
      7          1           0        0.657013   -0.379247   -1.545000
      8          1           0        0.831514   -1.326382   -0.056199
      9          1           0       -1.916094   -0.443206   -1.251885
     10          1           0       -2.622479    0.145392    0.257835
     11          1           0       -1.727057   -1.378462    0.242232
     12          1           0        2.083700    1.466792   -0.497352
     13          1           0        2.972426   -0.087354   -0.422528
 ---------------------------------------------------------------------
                    Distance matrix (angstroms):
                    1          2          3          4          5
     1  C    0.000000
     2  C    1.528534   0.000000
     3  C    1.528867   2.541211   0.000000
     4  C    2.529768   1.510535   3.890993   0.000000
     5  H    1.094174   2.149162   2.154775   2.755925   0.000000
     6  H    1.095232   2.151818   2.153896   2.758805   1.768060
     7  H    2.158486   1.098427   2.778689   2.127615   3.056950
     8  H    2.153639   1.095564   2.764694   2.139635   2.491280
     9  H    2.171632   2.801217   1.093263   4.205987   3.068041
    10  H    2.175487   3.491811   1.092757   4.698445   2.497055
    11  H    2.170983   2.800995   1.092935   4.205784   2.505085
    12  H    2.839225   2.210904   4.270615   1.092321   3.134193
    13  H    3.512634   2.217877   4.746387   1.091855   3.737755
                    6          7          8          9         10
     6  H    0.000000
     7  H    2.490106   0.000000
     8  H    3.054800   1.773146   0.000000
     9  H    2.505243   2.590538   3.123943   0.000000
    10  H    2.494730   3.778959   3.767600   1.767677   0.000000
    11  H    3.067188   3.142677   2.576444   1.772801   1.767528
    12  H    2.625737   2.557511   3.092637   4.496194   4.946163
    13  H    3.809098   2.589649   2.500577   4.971125   5.640924
                   11         12         13
    11  H    0.000000
    12  H    4.812933   0.000000
    13  H    4.918740   1.791871   0.000000
 Stoichiometry    C4H9(2)
 Framework group  C1[X(C4H9)]
 Deg. of freedom    33
 Full point group                 C1      NOp   1
 Largest Abelian subgroup         C1      NOp   1
 Largest concise Abelian subgroup C1      NOp   1
                         Standard orientation:                         
 ---------------------------------------------------------------------
 Center     Atomic      Atomic             Coordinates (Angstroms)
 Number     Number       Type             X           Y           Z
 ---------------------------------------------------------------------
      1          6           0        0.511023    0.523632   -0.080925
      2          6           0       -0.634042   -0.482809    0.030061
      3          6           0        1.883847   -0.139338    0.034227
      4          6           0       -1.993372    0.166239   -0.082519
      5          1           0        0.437531    1.040357   -1.042596
      6          1           0        0.405743    1.274276    0.709634
      7          1           0       -0.577035   -0.995189    0.999988
      8          1           0       -0.526748   -1.238742   -0.755631
      9          1           0        1.989745   -0.645160    0.997634
     10          1           0        2.684937    0.599359   -0.047623
     11          1           0        2.024226   -0.877385   -0.759553
     12          1           0       -2.199272    0.950627    0.649263
     13          1           0       -2.843859   -0.514491   -0.156179
 ---------------------------------------------------------------------
 Rotational constants (GHZ):     25.2064410      3.8010392      3.5524285
 Standard basis: 6-311+G(2df,2p) (5D, 7F)
 There are   217 symmetry adapted basis functions of A   symmetry.
 Integral buffers will be    131072 words long.
 Raffenetti 2 integral format.
 Two-electron integral symmetry is turned on.
   217 basis functions,   307 primitive gaussians,   237 cartesian basis functions
    17 alpha electrons       16 beta electrons
       nuclear repulsion energy       122.9098794440 Hartrees.
 NAtoms=   13 NActive=   13 NUniq=   13 SFac= 1.00D+00 NAtFMM=   50 NAOKFM=F Big=F
 One-electron integrals computed using PRISM.
 NBasis=   217 RedAO= T  NBF=   217
 NBsUse=   217 1.00D-06 NBFU=   217
 Initial guess read from the read-write file.
 B after Tr=     0.000000    0.000000    0.000000
         Rot=    1.000000    0.000000    0.000000    0.000000 Ang=   0.00 deg.
 Initial guess orbital symmetries:
 Alpha Orbitals:
       Occupied  (A) (A) (A) (A) (A) (A) (A) (A) (A) (A) (A) (A)
                 (A) (A) (A) (A) (A)
       Virtual   (A) (A) (A) (A) (A) (A) (A) (A) (A) (A) (A) (A)
                 (A) (A) (A) (A) (A) (A) (A) (A) (A) (A) (A) (A)
                 (A) (A) (A) (A) (A) (A) (A) (A) (A) (A) (A) (A)
                 (A) (A) (A) (A) (A) (A) (A) (A) (A) (A) (A) (A)
                 (A) (A) (A) (A) (A) (A) (A) (A) (A) (A) (A) (A)
                 (A) (A) (A) (A) (A) (A) (A) (A) (A) (A) (A) (A)
                 (A) (A) (A) (A) (A) (A) (A) (A) (A) (A) (A) (A)
                 (A) (A) (A) (A) (A) (A) (A) (A) (A) (A) (A) (A)
                 (A) (A) (A) (A) (A) (A) (A) (A) (A) (A) (A) (A)
                 (A) (A) (A) (A) (A) (A) (A) (A) (A) (A) (A) (A)
                 (A) (A) (A) (A) (A) (A) (A) (A) (A) (A) (A) (A)
                 (A) (A) (A) (A) (A) (A) (A) (A) (A) (A) (A) (A)
                 (A) (A) (A) (A) (A) (A) (A) (A) (A) (A) (A) (A)
                 (A) (A) (A) (A) (A) (A) (A) (A) (A) (A) (A) (A)
                 (A) (A) (A) (A) (A) (A) (A) (A) (A) (A) (A) (A)
                 (A) (A) (A) (A) (A) (A) (A) (A) (A) (A) (A) (A)
                 (A) (A) (A) (A) (A) (A) (A) (A)
 Beta  Orbitals:
       Occupied  (A) (A) (A) (A) (A) (A) (A) (A) (A) (A) (A) (A)
                 (A) (A) (A) (A)
       Virtual   (A) (A) (A) (A) (A) (A) (A) (A) (A) (A) (A) (A)
                 (A) (A) (A) (A) (A) (A) (A) (A) (A) (A) (A) (A)
                 (A) (A) (A) (A) (A) (A) (A) (A) (A) (A) (A) (A)
                 (A) (A) (A) (A) (A) (A) (A) (A) (A) (A) (A) (A)
                 (A) (A) (A) (A) (A) (A) (A) (A) (A) (A) (A) (A)
                 (A) (A) (A) (A) (A) (A) (A) (A) (A) (A) (A) (A)
                 (A) (A) (A) (A) (A) (A) (A) (A) (A) (A) (A) (A)
                 (A) (A) (A) (A) (A) (A) (A) (A) (A) (A) (A) (A)
                 (A) (A) (A) (A) (A) (A) (A) (A) (A) (A) (A) (A)
                 (A) (A) (A) (A) (A) (A) (A) (A) (A) (A) (A) (A)
                 (A) (A) (A) (A) (A) (A) (A) (A) (A) (A) (A) (A)
                 (A) (A) (A) (A) (A) (A) (A) (A) (A) (A) (A) (A)
                 (A) (A) (A) (A) (A) (A) (A) (A) (A) (A) (A) (A)
                 (A) (A) (A) (A) (A) (A) (A) (A) (A) (A) (A) (A)
                 (A) (A) (A) (A) (A) (A) (A) (A) (A) (A) (A) (A)
                 (A) (A) (A) (A) (A) (A) (A) (A) (A) (A) (A) (A)
                 (A) (A) (A) (A) (A) (A) (A) (A) (A)
 Initial guess <Sx>= 0.0000 <Sy>= 0.0000 <Sz>= 0.5000 <S**2>= 0.7545 S= 0.5022
 Harris functional with IExCor= 1009 diagonalized for initial guess.
 ExpMin= 4.38D-02 ExpMax= 4.56D+03 ExpMxC= 6.82D+02 IAcc=2 IRadAn=         0 AccDes= 0.00D+00
 HarFok:  IExCor= 1009 AccDes= 0.00D+00 IRadAn=         0 IDoV= 1
 ScaDFX=  1.000000  1.000000  1.000000  1.000000
 FoFCou: FMM=F IPFlag=           0 FMFlag=      100000 FMFlg1=           0
         NFxFlg=           0 DoJE=T BraDBF=F KetDBF=T FulRan=T
         Omega=  0.000000  0.000000  1.000000  0.000000  0.000000 ICntrl=     500 IOpCl=  0
         NMat0=    1 NMatS0=    1 NMatT0=    0 NMatD0=    1 NMtDS0=    0 NMtDT0=    0
         I1Cent=           4 NGrid=           0.
 Petite list used in FoFCou.
 Requested convergence on RMS density matrix=1.00D-08 within 128 cycles.
 Requested convergence on MAX density matrix=1.00D-06.
 Requested convergence on             energy=1.00D-06.
 No special actions if energy rises.
 SCF Done:  E(UM062X) =  -157.738616665     A.U. after   12 cycles
             Convg  =    0.4094D-08             -V/T =  2.0049
 <Sx>= 0.0000 <Sy>= 0.0000 <Sz>= 0.5000 <S**2>= 0.7545 S= 0.5023
 <L.S>= 0.000000000000E+00
 Annihilation of the first spin contaminant:
 S**2 before annihilation     0.7545,   after     0.7500
 Calling FoFJK, ICntrl=      2127 FMM=F ISym2X=0 I1Cent= 0 IOpClX= 1 NMat=1 NMatS=1 NMatT=0.
 ***** Axes restored to original set *****
 -------------------------------------------------------------------
 Center     Atomic                   Forces (Hartrees/Bohr)
 Number     Number              X              Y              Z
 -------------------------------------------------------------------
      1        6          -0.003262133   -0.001916162   -0.002154694
      2        6           0.007604517    0.005519518    0.012269707
      3        6           0.000510070    0.001846455    0.000878819
      4        6          -0.000567820   -0.002599474   -0.026788771
      5        1           0.000511850    0.001661797   -0.001926816
      6        1           0.001063632   -0.000844922    0.002390558
      7        1          -0.000836115   -0.002103343    0.000556826
      8        1          -0.000900979    0.000620696   -0.003245711
      9        1           0.000029350   -0.000741106    0.001660771
     10        1           0.001361774   -0.001402840   -0.000960109
     11        1          -0.000321927    0.001058424   -0.001437982
     12        1          -0.002658503   -0.000479713    0.009500865
     13        1          -0.002533716   -0.000619329    0.009256536
 -------------------------------------------------------------------
 Cartesian Forces:  Max     0.026788771 RMS     0.005592603

 GradGradGradGradGradGradGradGradGradGradGradGradGradGradGradGradGradGrad
 Berny optimization.
 Using GDIIS optimizer.
 Internal  Forces:  Max     0.008280771 RMS     0.002400419
 Search for a local minimum.
 Step number   2 out of a maximum of   67
 All quantities printed in internal units (Hartrees-Bohrs-Radians)
 Swaping is turned off.
 Update second derivatives using D2CorX and points    1    2
 DE= -8.87D-03 DEPred=-9.55D-03 R= 9.29D-01
 SS=  1.41D+00  RLast= 2.98D-01 DXNew= 5.0454D-01 8.9466D-01
 Trust test= 9.29D-01 RLast= 2.98D-01 DXMaxT set to 5.05D-01
 ITU=  1  0
     Eigenvalues ---    0.00358   0.00424   0.00468   0.03058   0.03616
     Eigenvalues ---    0.04112   0.04903   0.05367   0.05583   0.05604
     Eigenvalues ---    0.08267   0.09309   0.12153   0.12839   0.15941
     Eigenvalues ---    0.16000   0.16000   0.16000   0.17089   0.21912
     Eigenvalues ---    0.22576   0.26820   0.29353   0.29855   0.32078
     Eigenvalues ---    0.32385   0.32398   0.32430   0.32461   0.32502
     Eigenvalues ---    0.32525   0.32549   0.33869
 DIIS coeff's:      1.59092     -0.59092
 Cosine:  1.000 >  0.970
 Length:  0.968
 GDIIS step was calculated using  2 of the last  2 vectors.
 Iteration  1 RMS(Cart)=  0.04004243 RMS(Int)=  0.00685406
 Iteration  2 RMS(Cart)=  0.00449673 RMS(Int)=  0.00540411
 Iteration  3 RMS(Cart)=  0.00003762 RMS(Int)=  0.00540400
 Iteration  4 RMS(Cart)=  0.00000062 RMS(Int)=  0.00540400
 Variable       Old X    -DE/DX   Delta X   Delta X   Delta X     New X
                                  (DIIS)     (GDIIS)  (Total)
    R1        2.88851  -0.00069  -0.00259  -0.00037  -0.00296   2.88555
    R2        2.88914  -0.00172   0.00337  -0.01356  -0.01020   2.87894
    R3        2.06769  -0.00174  -0.01996   0.01703  -0.00292   2.06476
    R4        2.06969  -0.00172  -0.01875   0.01556  -0.00319   2.06650
    R5        2.85450  -0.00828  -0.01337  -0.02641  -0.03979   2.81471
    R6        2.07573  -0.00035  -0.01514   0.01770   0.00256   2.07829
    R7        2.07032  -0.00181  -0.01787   0.01404  -0.00383   2.06649
    R8        2.06597  -0.00158  -0.01979   0.01759  -0.00220   2.06377
    R9        2.06501  -0.00212  -0.01970   0.01487  -0.00483   2.06018
   R10        2.06535  -0.00153  -0.02003   0.01817  -0.00186   2.06349
   R11        2.06419  -0.00351  -0.02082   0.00947  -0.01135   2.05284
   R12        2.06331  -0.00413  -0.02059   0.00619  -0.01440   2.04890
    A1        1.96241  -0.00082   0.01322  -0.02031  -0.00710   1.95531
    A2        1.90122  -0.00003  -0.00733   0.00804   0.00059   1.90182
    A3        1.90377   0.00010  -0.00663   0.00903   0.00229   1.90605
    A4        1.90847   0.00099   0.00436   0.00654   0.01093   1.91940
    A5        1.90620   0.00088   0.00367   0.00651   0.01022   1.91642
    A6        1.87998  -0.00114  -0.00794  -0.00949  -0.01755   1.86243
    A7        1.96688   0.00054   0.02155  -0.01921   0.00217   1.96906
    A8        1.90962  -0.00076  -0.00632  -0.00388  -0.01017   1.89945
    A9        1.90591   0.00042  -0.00454   0.01454   0.00958   1.91549
   A10        1.88909   0.00048  -0.00933   0.02135   0.01213   1.90123
   A11        1.90833   0.00060   0.00686   0.00558   0.01222   1.92055
   A12        1.88212  -0.00138  -0.00906  -0.01865  -0.02778   1.85434
   A13        1.93262   0.00053   0.00421  -0.00180   0.00235   1.93497
   A14        1.93852   0.00069   0.01558  -0.01398   0.00150   1.94002
   A15        1.93206   0.00053   0.00371  -0.00111   0.00256   1.93462
   A16        1.88363  -0.00040  -0.00741   0.00890   0.00139   1.88503
   A17        1.89140  -0.00101  -0.00958   0.00034  -0.00923   1.88217
   A18        1.88381  -0.00041  -0.00727   0.00844   0.00108   1.88489
   A19        2.01335   0.00324   0.05039   0.02339   0.05194   2.06529
   A20        2.02428   0.00396   0.06199   0.01345   0.05365   2.07794
   A21        1.92418   0.00174   0.01185   0.10448   0.09118   2.01535
    D1        3.14127  -0.00042  -0.00784  -0.02149  -0.02936   3.11190
    D2        1.03874  -0.00086  -0.00588  -0.03326  -0.03909   0.99965
    D3       -1.01755   0.00101   0.01166  -0.01694  -0.00529  -1.02284
    D4       -1.02361   0.00027   0.00124  -0.02094  -0.01979  -1.04340
    D5       -3.12614  -0.00017   0.00320  -0.03270  -0.02951   3.12753
    D6        1.10076   0.00170   0.02074  -0.01638   0.00428   1.10504
    D7        1.02406  -0.00107  -0.01656  -0.02266  -0.03920   0.98487
    D8       -1.07847  -0.00150  -0.01460  -0.03443  -0.04892  -1.12739
    D9       -3.13475   0.00036   0.00294  -0.01811  -0.01512   3.13331
   D10       -1.04861   0.00023   0.00312  -0.00726  -0.00411  -1.05272
   D11       -3.14122  -0.00006  -0.00036  -0.00806  -0.00843   3.13354
   D12        1.04951  -0.00034  -0.00370  -0.00875  -0.01247   1.03703
   D13        3.12041   0.00013   0.00085  -0.00859  -0.00773   3.11268
   D14        1.02780  -0.00017  -0.00263  -0.00939  -0.01205   1.01576
   D15       -1.06466  -0.00045  -0.00596  -0.01008  -0.01610  -1.08076
   D16        1.06720   0.00043   0.00580  -0.00468   0.00117   1.06838
   D17       -1.02540   0.00013   0.00231  -0.00548  -0.00314  -1.02855
   D18       -3.11787  -0.00015  -0.00102  -0.00617  -0.00719  -3.12506
   D19       -1.00322   0.00586   0.06158   0.13318   0.19857  -0.80465
   D20        2.99235  -0.00441  -0.04763  -0.06582  -0.11696   2.87538
   D21        1.11105   0.00558   0.06114   0.13073   0.19555   1.30660
   D22       -1.17657  -0.00469  -0.04807  -0.06826  -0.11999  -1.29656
   D23       -3.12622   0.00453   0.04886   0.12357   0.17594  -2.95027
   D24        0.86935  -0.00574  -0.06035  -0.07543  -0.13959   0.72976
         Item               Value     Threshold  Converged?
 Maximum Force            0.008281     0.000002     NO 
 RMS     Force            0.002400     0.000001     NO 
 Maximum Displacement     0.165123     0.000006     NO 
 RMS     Displacement     0.039311     0.000004     NO 
 Predicted change in Energy=-3.674758D-03
 GradGradGradGradGradGradGradGradGradGradGradGradGradGradGradGradGradGrad

                          Input orientation:                          
 ---------------------------------------------------------------------
 Center     Atomic      Atomic             Coordinates (Angstroms)
 Number     Number       Type             X           Y           Z
 ---------------------------------------------------------------------
      1          6           0       -0.455145    0.387658    0.123386
      2          6           0        0.762652   -0.316506   -0.470546
      3          6           0       -1.748386   -0.362332   -0.169881
      4          6           0        2.032628    0.423248   -0.228730
      5          1           0       -0.317191    0.485842    1.202811
      6          1           0       -0.515917    1.402498   -0.279411
      7          1           0        0.615021   -0.427104   -1.554749
      8          1           0        0.836737   -1.330120   -0.066913
      9          1           0       -1.915632   -0.443282   -1.246059
     10          1           0       -2.606940    0.148023    0.267104
     11          1           0       -1.712548   -1.373755    0.240111
     12          1           0        2.047960    1.494226   -0.409973
     13          1           0        2.976759   -0.088498   -0.378050
 ---------------------------------------------------------------------
                    Distance matrix (angstroms):
                    1          2          3          4          5
     1  C    0.000000
     2  C    1.526968   0.000000
     3  C    1.523470   2.529389   0.000000
     4  C    2.512821   1.489481   3.862210   0.000000
     5  H    1.092626   2.147079   2.156850   2.752250   0.000000
     6  H    1.093544   2.150871   2.155366   2.730674   1.754062
     7  H    2.150635   1.099783   2.740027   2.119207   3.050677
     8  H    2.157762   1.093537   2.762259   2.128531   2.498293
     9  H    2.167686   2.791181   1.092100   4.168284   3.068428
    10  H    2.169862   3.480526   1.090198   4.674098   2.496522
    11  H    2.167317   2.783778   1.091950   4.180356   2.516330
    12  H    2.788279   2.221360   4.232812   1.086314   3.035103
    13  H    3.500875   2.227738   4.737648   1.084234   3.698526
                    6          7          8          9         10
     6  H    0.000000
     7  H    2.500591   0.000000
     8  H    3.056474   1.754495   0.000000
     9  H    2.510083   2.549462   3.122883   0.000000
    10  H    2.498952   3.745791   3.762364   1.765562   0.000000
    11  H    3.067476   3.087919   2.568077   1.765141   1.765353
    12  H    2.568838   2.656189   3.092198   4.490328   4.892728
    13  H    3.798892   2.660279   2.493617   4.981445   5.625820
                   11         12         13
    11  H    0.000000
    12  H    4.773819   0.000000
    13  H    4.901388   1.835402   0.000000
 Stoichiometry    C4H9(2)
 Framework group  C1[X(C4H9)]
 Deg. of freedom    33
 Full point group                 C1      NOp   1
 Largest Abelian subgroup         C1      NOp   1
 Largest concise Abelian subgroup C1      NOp   1
                         Standard orientation:                         
 ---------------------------------------------------------------------
 Center     Atomic      Atomic             Coordinates (Angstroms)
 Number     Number       Type             X           Y           Z
 ---------------------------------------------------------------------
      1          6           0        0.505188    0.525612   -0.083888
      2          6           0       -0.632520   -0.486695    0.027840
      3          6           0        1.872451   -0.136121    0.033008
      4          6           0       -1.978609    0.146926   -0.043730
      5          1           0        0.423618    1.047366   -1.040419
      6          1           0        0.391712    1.282105    0.697572
      7          1           0       -0.539894   -1.020618    0.984851
      8          1           0       -0.532312   -1.243150   -0.755458
      9          1           0        1.980639   -0.637836    0.996989
     10          1           0        2.673682    0.597709   -0.056732
     11          1           0        2.010507   -0.883888   -0.750663
     12          1           0       -2.161249    1.037942    0.550249
     13          1           0       -2.845758   -0.477957   -0.225765
 ---------------------------------------------------------------------
 Rotational constants (GHZ):     25.1826641      3.8557649      3.5894141
 Standard basis: 6-311+G(2df,2p) (5D, 7F)
 There are   217 symmetry adapted basis functions of A   symmetry.
 Integral buffers will be    131072 words long.
 Raffenetti 2 integral format.
 Two-electron integral symmetry is turned on.
   217 basis functions,   307 primitive gaussians,   237 cartesian basis functions
    17 alpha electrons       16 beta electrons
       nuclear repulsion energy       123.4374468072 Hartrees.
 NAtoms=   13 NActive=   13 NUniq=   13 SFac= 1.00D+00 NAtFMM=   50 NAOKFM=F Big=F
 One-electron integrals computed using PRISM.
 NBasis=   217 RedAO= T  NBF=   217
 NBsUse=   217 1.00D-06 NBFU=   217
 Initial guess read from the read-write file.
 B after Tr=     0.000000    0.000000    0.000000
         Rot=    1.000000    0.000000    0.000000    0.000000 Ang=   0.00 deg.
 Initial guess orbital symmetries:
 Alpha Orbitals:
       Occupied  (A) (A) (A) (A) (A) (A) (A) (A) (A) (A) (A) (A)
                 (A) (A) (A) (A) (A)
       Virtual   (A) (A) (A) (A) (A) (A) (A) (A) (A) (A) (A) (A)
                 (A) (A) (A) (A) (A) (A) (A) (A) (A) (A) (A) (A)
                 (A) (A) (A) (A) (A) (A) (A) (A) (A) (A) (A) (A)
                 (A) (A) (A) (A) (A) (A) (A) (A) (A) (A) (A) (A)
                 (A) (A) (A) (A) (A) (A) (A) (A) (A) (A) (A) (A)
                 (A) (A) (A) (A) (A) (A) (A) (A) (A) (A) (A) (A)
                 (A) (A) (A) (A) (A) (A) (A) (A) (A) (A) (A) (A)
                 (A) (A) (A) (A) (A) (A) (A) (A) (A) (A) (A) (A)
                 (A) (A) (A) (A) (A) (A) (A) (A) (A) (A) (A) (A)
                 (A) (A) (A) (A) (A) (A) (A) (A) (A) (A) (A) (A)
                 (A) (A) (A) (A) (A) (A) (A) (A) (A) (A) (A) (A)
                 (A) (A) (A) (A) (A) (A) (A) (A) (A) (A) (A) (A)
                 (A) (A) (A) (A) (A) (A) (A) (A) (A) (A) (A) (A)
                 (A) (A) (A) (A) (A) (A) (A) (A) (A) (A) (A) (A)
                 (A) (A) (A) (A) (A) (A) (A) (A) (A) (A) (A) (A)
                 (A) (A) (A) (A) (A) (A) (A) (A) (A) (A) (A) (A)
                 (A) (A) (A) (A) (A) (A) (A) (A)
 Beta  Orbitals:
       Occupied  (A) (A) (A) (A) (A) (A) (A) (A) (A) (A) (A) (A)
                 (A) (A) (A) (A)
       Virtual   (A) (A) (A) (A) (A) (A) (A) (A) (A) (A) (A) (A)
                 (A) (A) (A) (A) (A) (A) (A) (A) (A) (A) (A) (A)
                 (A) (A) (A) (A) (A) (A) (A) (A) (A) (A) (A) (A)
                 (A) (A) (A) (A) (A) (A) (A) (A) (A) (A) (A) (A)
                 (A) (A) (A) (A) (A) (A) (A) (A) (A) (A) (A) (A)
                 (A) (A) (A) (A) (A) (A) (A) (A) (A) (A) (A) (A)
                 (A) (A) (A) (A) (A) (A) (A) (A) (A) (A) (A) (A)
                 (A) (A) (A) (A) (A) (A) (A) (A) (A) (A) (A) (A)
                 (A) (A) (A) (A) (A) (A) (A) (A) (A) (A) (A) (A)
                 (A) (A) (A) (A) (A) (A) (A) (A) (A) (A) (A) (A)
                 (A) (A) (A) (A) (A) (A) (A) (A) (A) (A) (A) (A)
                 (A) (A) (A) (A) (A) (A) (A) (A) (A) (A) (A) (A)
                 (A) (A) (A) (A) (A) (A) (A) (A) (A) (A) (A) (A)
                 (A) (A) (A) (A) (A) (A) (A) (A) (A) (A) (A) (A)
                 (A) (A) (A) (A) (A) (A) (A) (A) (A) (A) (A) (A)
                 (A) (A) (A) (A) (A) (A) (A) (A) (A) (A) (A) (A)
                 (A) (A) (A) (A) (A) (A) (A) (A) (A)
 Initial guess <Sx>= 0.0000 <Sy>= 0.0000 <Sz>= 0.5000 <S**2>= 0.7547 S= 0.5023
 Harris functional with IExCor= 1009 diagonalized for initial guess.
 ExpMin= 4.38D-02 ExpMax= 4.56D+03 ExpMxC= 6.82D+02 IAcc=2 IRadAn=         0 AccDes= 0.00D+00
 HarFok:  IExCor= 1009 AccDes= 0.00D+00 IRadAn=         0 IDoV= 1
 ScaDFX=  1.000000  1.000000  1.000000  1.000000
 FoFCou: FMM=F IPFlag=           0 FMFlag=      100000 FMFlg1=           0
         NFxFlg=           0 DoJE=T BraDBF=F KetDBF=T FulRan=T
         Omega=  0.000000  0.000000  1.000000  0.000000  0.000000 ICntrl=     500 IOpCl=  0
         NMat0=    1 NMatS0=    1 NMatT0=    0 NMatD0=    1 NMtDS0=    0 NMtDT0=    0
         I1Cent=           4 NGrid=           0.
 Petite list used in FoFCou.
 Requested convergence on RMS density matrix=1.00D-08 within 128 cycles.
 Requested convergence on MAX density matrix=1.00D-06.
 Requested convergence on             energy=1.00D-06.
 No special actions if energy rises.
 SCF Done:  E(UM062X) =  -157.742541853     A.U. after   11 cycles
             Convg  =    0.7918D-08             -V/T =  2.0045
 <Sx>= 0.0000 <Sy>= 0.0000 <Sz>= 0.5000 <S**2>= 0.7548 S= 0.5024
 <L.S>= 0.000000000000E+00
 Annihilation of the first spin contaminant:
 S**2 before annihilation     0.7548,   after     0.7500
 Calling FoFJK, ICntrl=      2127 FMM=F ISym2X=0 I1Cent= 0 IOpClX= 1 NMat=1 NMatS=1 NMatT=0.
 ***** Axes restored to original set *****
 -------------------------------------------------------------------
 Center     Atomic                   Forces (Hartrees/Bohr)
 Number     Number              X              Y              Z
 -------------------------------------------------------------------
      1        6          -0.001226554   -0.001662314   -0.000859300
      2        6           0.002665047    0.003131849    0.003169917
      3        6          -0.000912421    0.000850198    0.000612088
      4        6           0.002393923    0.000170902   -0.008594950
      5        1           0.000119794    0.000334226   -0.000492158
      6        1           0.000518052   -0.000369073    0.000406686
      7        1          -0.001177435   -0.001114778   -0.000006125
      8        1          -0.000530552   -0.000107522   -0.000739458
      9        1           0.000012954   -0.000096259    0.000794200
     10        1          -0.000121111   -0.000814663   -0.000420675
     11        1          -0.000158130    0.000622940   -0.000471337
     12        1          -0.000564618   -0.001551767    0.003313034
     13        1          -0.001018948    0.000606259    0.003288078
 -------------------------------------------------------------------
 Cartesian Forces:  Max     0.008594950 RMS     0.001934749

 GradGradGradGradGradGradGradGradGradGradGradGradGradGradGradGradGradGrad
 Berny optimization.
 Using GDIIS optimizer.
 Internal  Forces:  Max     0.002076799 RMS     0.000887715
 Search for a local minimum.
 Step number   3 out of a maximum of   67
 All quantities printed in internal units (Hartrees-Bohrs-Radians)
 Swaping is turned off.
 Update second derivatives using D2CorX and points    2    3
 DE= -3.93D-03 DEPred=-3.67D-03 R= 1.07D+00
 SS=  1.41D+00  RLast= 4.28D-01 DXNew= 8.4853D-01 1.2825D+00
 Trust test= 1.07D+00 RLast= 4.28D-01 DXMaxT set to 8.49D-01
 ITU=  1  1  0
     Eigenvalues ---    0.00358   0.00424   0.00468   0.02035   0.03612
     Eigenvalues ---    0.04069   0.04804   0.05213   0.05549   0.05586
     Eigenvalues ---    0.08206   0.09358   0.12137   0.12886   0.15804
     Eigenvalues ---    0.16000   0.16000   0.16034   0.17363   0.21855
     Eigenvalues ---    0.22545   0.25884   0.29364   0.29873   0.32171
     Eigenvalues ---    0.32385   0.32398   0.32435   0.32469   0.32502
     Eigenvalues ---    0.32533   0.32559   0.34094
 DIIS coeff's:      1.37606     -0.28300     -0.09306
 Cosine:  0.997 >  0.840
 Length:  0.932
 GDIIS step was calculated using  3 of the last  3 vectors.
 Iteration  1 RMS(Cart)=  0.02270272 RMS(Int)=  0.00326581
 Iteration  2 RMS(Cart)=  0.00117726 RMS(Int)=  0.00305697
 Iteration  3 RMS(Cart)=  0.00000480 RMS(Int)=  0.00305696
 Iteration  4 RMS(Cart)=  0.00000004 RMS(Int)=  0.00305696
 Variable       Old X    -DE/DX   Delta X   Delta X   Delta X     New X
                                  (DIIS)     (GDIIS)  (Total)
    R1        2.88555   0.00069  -0.00152   0.00447   0.00295   2.88850
[...]
 Vib (V=0)    3  0.144105D+01          0.158680          0.365374
 Vib (V=0)    4  0.138136D+01          0.140308          0.323071
 Vib (V=0)    5  0.113872D+01          0.056418          0.129908
 Vib (V=0)    6  0.109439D+01          0.039174          0.090201
 Electronic      0.200000D+01          0.301030          0.693147
 Translational   0.169462D+08          7.229072         16.645553
 Rotational      0.465031D+05          4.667482         10.747274
 ***** Axes restored to original set *****
 -------------------------------------------------------------------
 Center     Atomic                   Forces (Hartrees/Bohr)
 Number     Number              X              Y              Z
 -------------------------------------------------------------------
      1        6           0.000003202   -0.000010443    0.000017028
      2        6          -0.000002629    0.000007647   -0.000016067
      3        6          -0.000000782    0.000003336   -0.000003155
      4        6           0.000001049   -0.000004280    0.000003632
      5        1           0.000009812   -0.000050531    0.000020609
      6        1           0.000004158    0.000005197    0.000054469
      7        1          -0.000009389    0.000047782   -0.000020476
      8        1          -0.000003646   -0.000008054   -0.000053689
      9        1          -0.000007342    0.000043334   -0.000005822
     10        1           0.000003454   -0.000010125    0.000020626
     11        1          -0.000001744   -0.000012450   -0.000040411
     12        1           0.000004848   -0.000005727    0.000043544
     13        1          -0.000000993   -0.000005686   -0.000020287
 -------------------------------------------------------------------
 Cartesian Forces:  Max     0.000054469 RMS     0.000022256

 GradGradGradGradGradGradGradGradGradGradGradGradGradGradGradGradGradGrad
 Berny optimization.
 Internal  Forces:  Max     0.000000055 RMS     0.000000018
 Search for a local minimum.
 Step number   1 out of a maximum of    2
 All quantities printed in internal units (Hartrees-Bohrs-Radians)
 Swaping is turned off.
 Second derivative matrix not updated -- analytic derivatives used.
 ITU=  0
     Eigenvalues ---    0.00170   0.00236   0.00290   0.00781   0.03406
     Eigenvalues ---    0.03853   0.03910   0.04238   0.04533   0.04565
     Eigenvalues ---    0.06956   0.07717   0.09748   0.10173   0.11290
     Eigenvalues ---    0.12169   0.12848   0.13450   0.15846   0.17255
     Eigenvalues ---    0.22286   0.29182   0.30360   0.31116   0.32611
     Eigenvalues ---    0.33012   0.33714   0.33900   0.33951   0.34580
     Eigenvalues ---    0.34896   0.36677   0.37221
 Angle between quadratic step and forces=  66.94 degrees.
 Linear search not attempted -- option 19 set.
 Iteration  1 RMS(Cart)=  0.00000196 RMS(Int)=  0.00000000
 Iteration  2 RMS(Cart)=  0.00000000 RMS(Int)=  0.00000000
 Variable       Old X    -DE/DX   Delta X   Delta X   Delta X     New X
                                 (Linear)    (Quad)   (Total)
    R1        2.88764   0.00000   0.00000   0.00000   0.00000   2.88764
    R2        2.87830   0.00000   0.00000   0.00000   0.00000   2.87830
    R3        2.06397   0.00000   0.00000   0.00000   0.00000   2.06397
    R4        2.06546   0.00000   0.00000   0.00000   0.00000   2.06546
    R5        2.80660   0.00000   0.00000   0.00000   0.00000   2.80660
    R6        2.08029   0.00000   0.00000   0.00000   0.00000   2.08029
    R7        2.06794   0.00000   0.00000   0.00000   0.00000   2.06794
    R8        2.06172   0.00000   0.00000   0.00000   0.00000   2.06172
    R9        2.05856   0.00000   0.00000   0.00000   0.00000   2.05856
   R10        2.06163   0.00000   0.00000   0.00000   0.00000   2.06163
   R11        2.04278   0.00000   0.00000   0.00000   0.00000   2.04278
   R12        2.03977   0.00000   0.00000   0.00000   0.00000   2.03977
    A1        1.96316   0.00000   0.00000   0.00000   0.00000   1.96316
    A2        1.90130   0.00000   0.00000   0.00000   0.00000   1.90130
    A3        1.90036   0.00000   0.00000   0.00000   0.00000   1.90036
    A4        1.92056   0.00000   0.00000   0.00000   0.00000   1.92056
    A5        1.91828   0.00000   0.00000   0.00000   0.00000   1.91828
    A6        1.85698   0.00000   0.00000   0.00000   0.00000   1.85698
    A7        1.97652   0.00000   0.00000   0.00000   0.00000   1.97652
    A8        1.88985   0.00000   0.00000   0.00000   0.00000   1.88985
    A9        1.91215   0.00000   0.00000   0.00000   0.00000   1.91215
   A10        1.92289   0.00000   0.00000   0.00000   0.00000   1.92289
   A11        1.92173   0.00000   0.00000   0.00000   0.00000   1.92173
   A12        1.83512   0.00000   0.00000   0.00000   0.00000   1.83512
   A13        1.93499   0.00000   0.00000   0.00000   0.00000   1.93499
   A14        1.94742   0.00000   0.00000   0.00000   0.00000   1.94742
   A15        1.93480   0.00000   0.00000   0.00000   0.00000   1.93480
   A16        1.88323   0.00000   0.00000   0.00000   0.00000   1.88323
   A17        1.87829   0.00000   0.00000   0.00000   0.00000   1.87829
   A18        1.88251   0.00000   0.00000   0.00000   0.00000   1.88251
   A19        2.09595   0.00000   0.00000   0.00000   0.00000   2.09595
   A20        2.11663   0.00000   0.00000   0.00000   0.00000   2.11663
   A21        2.05643   0.00000   0.00000   0.00000   0.00000   2.05643
    D1        3.11460   0.00000   0.00000   0.00000   0.00000   3.11460
    D2        0.97671   0.00000   0.00000   0.00000   0.00000   0.97671
    D3       -1.01582   0.00000   0.00000   0.00000   0.00000  -1.01582
    D4       -1.03440   0.00000   0.00000   0.00000   0.00000  -1.03440
    D5        3.11090   0.00000   0.00000   0.00000   0.00000   3.11090
    D6        1.11837   0.00000   0.00000   0.00000   0.00000   1.11837
    D7        0.98396   0.00000   0.00000   0.00000   0.00000   0.98396
    D8       -1.15393   0.00000   0.00000   0.00000   0.00000  -1.15392
    D9        3.13673   0.00000   0.00000   0.00000   0.00000   3.13673
   D10       -1.05237   0.00000   0.00000   0.00000   0.00000  -1.05237
   D11        3.13121   0.00000   0.00000   0.00000   0.00000   3.13121
   D12        1.03265   0.00000   0.00000   0.00000   0.00000   1.03265
   D13        3.10755   0.00000   0.00000   0.00000   0.00000   3.10755
   D14        1.00794   0.00000   0.00000   0.00000   0.00000   1.00794
   D15       -1.09062   0.00000   0.00000   0.00000   0.00000  -1.09062
   D16        1.06808   0.00000   0.00000   0.00000   0.00000   1.06808
   D17       -1.03153   0.00000   0.00000   0.00000   0.00000  -1.03153
   D18       -3.13009   0.00000   0.00000   0.00000   0.00000  -3.13009
   D19       -0.55770   0.00000   0.00000   0.00001   0.00001  -0.55769
   D20        2.76794   0.00000   0.00000   0.00000   0.00000   2.76794
   D21        1.56172   0.00000   0.00000   0.00001   0.00001   1.56173
   D22       -1.39583   0.00000   0.00000   0.00000   0.00000  -1.39583
   D23       -2.70518   0.00000   0.00000   0.00001   0.00001  -2.70517
   D24        0.62046   0.00000   0.00000   0.00000   0.00000   0.62046
         Item               Value     Threshold  Converged?
 Maximum Force            0.000000     0.000002     YES
 RMS     Force            0.000000     0.000001     YES
 Maximum Displacement     0.000012     0.000006     NO 
 RMS     Displacement     0.000002     0.000004     YES
 Predicted change in Energy=-3.726863D-13
 GradGradGradGradGradGradGradGradGradGradGradGradGradGradGradGradGradGrad


 Test job not archived.
 1\1\GINC-COMPUTE-3-047\Freq\UM062X\6-311+G(2df,2p)\C4H9(2)\ROOT\07-Mar
 -2017\0\\#N Geom=AllCheck Guess=TCheck SCRF=Check Test GenChk UM062X/6
 -311+G(2df,2p) Freq\\InChI=1S/C4H9/c1-3-4-2/h1,3-4H2,2H3/u1\\0,2\C,-0.
 4493648649,0.3914237129,0.0964974856\C,0.7638359091,-0.3173934589,-0.5
 0410458\C,-1.7488766678,-0.3609107281,-0.1588229835\C,2.0359737912,0.4
 204301891,-0.2965634195\H,-0.2925873771,0.5138954085,1.1704318322\H,-0
 .5139154743,1.3987471343,-0.3227494364\H,0.5808587127,-0.4635349246,-1
 .5797500802\H,0.841892345,-1.3263666523,-0.0877069473\H,-1.9362749751,
 -0.4608044751,-1.2289693834\H,-2.6020951884,0.1514190913,0.2841311991\
 H,-1.7055013505,-1.3656667451,0.2640155511\H,2.0361585349,1.5008104531
 ,-0.2602573195\H,2.9898966053,-0.0821490052,-0.3470519182\\Version=EM6
 4L-G09RevB.01\State=2-A\HF=-157.7435281\S2=0.755154\S2-1=0.\S2A=0.7500
 21\RMSD=3.154e-09\RMSF=2.226e-05\ZeroPoint=0.1178248\Thermal=0.1237408
 \Dipole=-0.0993887,-0.0398809,-0.0563604\DipoleDeriv=0.1125081,0.01067
 7,0.0053624,-0.0260416,0.0842566,-0.0202427,-0.0016327,-0.0245097,0.11
 01116,0.0117612,0.0076542,0.0054072,-0.0135313,0.0403357,-0.0356223,-0
 .028385,-0.050528,0.1449657,-0.0243356,-0.0244286,0.0009251,-0.0020953
 ,0.0645439,-0.0097759,0.0101606,-0.0092288,0.0854743,0.05199,-0.009761
 ,0.0354506,0.0199144,0.0960421,0.0390447,0.0578259,0.0488554,-0.362727
 3,-0.0045515,-0.0125371,-0.0383525,-0.001909,0.0406083,-0.0223105,-0.0
 151527,-0.0450874,-0.1343619,-0.0001013,-0.0150751,0.006836,0.0036547,
 -0.1355608,0.0452078,0.0049573,0.076758,0.0237477,-0.0107549,-0.034327
 9,-0.0538374,-0.0131809,0.0445751,-0.0294319,-0.0321059,-0.0555937,-0.
 1233743,0.0007474,-0.0148427,0.0030958,0.014348,-0.1189977,0.0392387,0
 .0162367,0.0764302,0.0378725,0.0339479,-0.015412,0.0040995,-0.0270124,
 0.0494033,-0.0057869,-0.0574125,-0.0299664,-0.1326303,-0.1128713,0.036
 1961,0.0501821,0.0685534,0.0183674,-0.0440493,0.0686107,-0.0387339,0.0
 374657,0.036225,0.0289028,-0.0242479,-0.0329849,-0.1120834,0.059626,-0
 .0093161,0.0725438,0.0309606,0.0114389,0.0254664,-0.003202,-0.0301443,
 -0.0832159,-0.0051797,-0.0138394,-0.0059171,0.1383148,-0.106004,0.0174
 879,0.0082811,0.0404293,0.0117255,-0.0107182,0.0000533,-0.0150223,0.14
 41809\Polar=58.0543975,2.664079,47.1442418,-0.3993605,1.1802904,45.165
 3923\PG=C01 [X(C4H9)]\NImag=0\\0.46597412,0.00453098,0.55649286,0.0202
 5896,-0.02450253,0.57959399,-0.13922275,0.04167331,0.03585127,0.476574
 77,0.04497029,-0.11051339,-0.02275521,0.00749673,0.55293651,0.03986144
 ,-0.02085373,-0.09586245,0.01344084,-0.02416091,0.49431294,-0.16655960
 ,-0.05217048,-0.01748248,-0.03012142,-0.01393078,-0.00289321,0.5126468
 4,-0.05521423,-0.11275809,-0.01095688,0.01326621,0.00919734,0.00268510
 ,-0.04212081,0.54918341,-0.01991488,-0.01186436,-0.08455626,0.01253623
 ,0.00813768,0.00206550,-0.01805479,-0.00658770,0.56818406,-0.03288799,
 -0.01238952,-0.00454373,-0.19844566,-0.06394711,-0.01959286,-0.0035434
 6,0.00264423,0.00227062,0.58565966,0.01138654,0.01057542,0.00423300,-0
 .06755085,-0.12734843,-0.01395272,0.00304127,-0.00248161,-0.00205084,-
 0.04252172,0.61060931,0.00829834,0.00644193,0.00152522,-0.02264884,-0.
 01589954,-0.04391742,0.00138109,-0.00125916,-0.00039519,0.02121617,0.0
 4749502,0.06316248,-0.05107831,-0.00414739,-0.03705388,0.00119644,0.00
 282175,0.02800521,-0.00591090,-0.00330954,-0.02983943,0.00189623,0.000
 58438,0.00003546,0.06076895,-0.00399948,-0.05221619,-0.02275476,-0.000
 65115,-0.00209261,-0.01670199,-0.00326610,-0.00213364,-0.01708725,-0.0
 0099689,0.00021893,0.00043370,0.00469120,0.05381653,-0.03654259,-0.023
 60594,-0.29902366,-0.00019374,-0.00120516,-0.01254407,-0.00113208,-0.0
 0037317,-0.00353988,-0.00095012,-0.00022512,0.00059434,0.03898790,0.02
 847551,0.32425896,-0.04749844,0.01482181,-0.00638374,-0.00472546,0.025
 61855,-0.01055446,0.00049062,-0.02856277,0.01217166,0.00178294,0.00133
 277,-0.00011934,-0.00088859,0.00407983,-0.00171856,0.05701133,0.014596
 05,-0.26384760,0.09358827,0.00280621,-0.01614846,0.00595875,0.00002375
 ,-0.01444636,0.00610016,-0.00128013,0.00071017,-0.00021129,-0.00014044
 ,0.00347678,-0.00082786,-0.01598139,0.28878306,-0.00621627,0.09449287,
 -0.09108568,0.00202267,-0.01390488,0.00516762,0.00020940,-0.00647410,0
 .00245160,-0.00062271,0.00014423,0.00007680,-0.00203360,0.02999941,-0.
 01277836,0.00550143,-0.10134395,0.09410942,0.00138648,0.00418128,0.027
 77941,-0.04622232,-0.00395491,-0.04609828,0.00198354,0.00002700,0.0009
 3378,-0.01106350,-0.00770307,-0.02388855,-0.00447038,0.00275420,0.0023
 2758,0.00106562,-0.00045226,-0.00083257,0.05825591,-0.00036062,-0.0024
 3145,-0.01783365,-0.00329505,-0.04598674,-0.02887819,-0.00086450,0.000
 30899,0.00052661,-0.00732703,-0.00409252,-0.01492320,0.00261418,-0.001
 00495,-0.00154795,-0.00092985,0.00030593,-0.00000472,0.00548421,0.0505
 9333,-0.00107348,-0.00222163,-0.01564878,-0.03230879,-0.02236216,-0.27
 092507,-0.00111090,0.00048408,0.00067310,-0.00793404,-0.00477614,-0.00
 150464,0.00236822,-0.00193832,0.00026263,-0.00017998,-0.00020751,0.000
 80910,0.04238049,0.03168943,0.30140196,-0.00405776,0.02423576,-0.01109
 588,-0.04954350,0.01713515,-0.00344495,0.00162492,0.00115500,-0.000591
 42,0.00156690,-0.02853422,0.00771798,0.00112599,-0.00098919,-0.0000839
 1,-0.00424412,0.00238766,0.00248797,0.00005858,0.00514865,-0.00217234,
 0.05660735,0.00209201,-0.01518318,0.00587855,0.01881649,-0.25985427,0.
 09320353,-0.00089182,0.00080534,0.00008342,-0.00154795,-0.01663681,0.0
 0331516,-0.00050733,0.00029621,-0.00033865,0.00231493,-0.00031860,-0.0
 0187813,0.00017834,0.00267626,-0.00038682,-0.01826056,0.28666236,0.001
 28445,-0.01354415,0.00548467,-0.00447406,0.09397600,-0.08496456,-0.000
 74028,-0.00011464,0.00015562,-0.00077000,-0.00767619,0.00202427,-0.000
 85662,-0.00007560,0.00060719,0.00256027,-0.00194339,-0.00011005,-0.002
 91216,0.02981401,-0.01486751,0.00695034,-0.09981018,0.09149309,-0.0060
 2704,-0.00229598,-0.02965439,0.00171535,0.00003487,-0.00129843,-0.0538
 2621,-0.00271461,-0.04107012,0.00001743,-0.00017360,0.00039137,-0.0047
 2313,-0.00297678,-0.00048569,0.00118061,0.00037282,0.00062629,-0.00029
 107,0.00014724,0.00081328,-0.00006053,0.00007502,0.00003434,0.05838722
 ,-0.00345544,-0.00228486,-0.01848303,0.00085158,0.00018879,0.00031956,
 -0.00263127,-0.04958122,-0.02078986,0.00015182,-0.00016739,0.00012757,
 -0.00338770,-0.00103152,-0.00034490,0.00082158,0.00024808,-0.00022376,
 -0.00004625,0.00039269,0.00027641,-0.00002627,-0.00001630,0.00015044,0
 .00670695,0.05028816,-0.00106322,-0.00111745,-0.00526696,0.00046279,0.
 00034960,0.00084193,-0.04145968,-0.02119863,-0.30250133,0.00007101,0.0
 0006618,0.00031164,-0.00057270,-0.00079456,0.00161520,-0.00022817,-0.0
 0040415,0.00051389,-0.00057728,0.00028613,0.00025296,-0.00009173,-0.00
 007930,-0.00010083,0.04705213,0.02447565,0.32812748,-0.02063231,0.0146
 3583,0.01182319,-0.00362515,-0.00478567,-0.00192683,-0.20790610,0.0995
 0753,0.08594717,-0.00102502,0.00137012,0.00060286,0.00085295,0.0004655
 3,-0.00051630,0.00095256,-0.00020080,0.00039430,0.00033666,-0.00012904
 ,0.00000054,0.00022703,-0.00008143,-0.00016984,0.00493586,-0.00348521,
 -0.00216234,0.22736114,-0.01458448,0.00919212,0.00873644,-0.00252319,-
 0.00181955,-0.00072114,0.10042812,-0.10939128,-0.05271162,-0.00084952,
 0.00086685,0.00015250,0.00090114,0.00049115,0.00000910,0.00074692,0.00
 060857,0.00042258,0.00007710,-0.00022056,-0.00001810,-0.00030289,0.000
 30548,-0.00016160,0.00074843,-0.00184119,-0.00027843,-0.10724675,0.115
 61864,-0.00597303,0.00412464,0.00194517,-0.00102240,-0.00057660,0.0002
 8198,0.08630679,-0.05248906,-0.09309066,-0.00017917,-0.00003137,0.0003
 8598,0.00023674,0.00054254,0.00030828,0.00049247,0.00008438,-0.0000573
 3,-0.00019191,0.00013609,0.00048437,0.00012753,-0.00025508,-0.00008107
 ,0.02543630,-0.01575936,-0.01193056,-0.09366854,0.05815565,0.09637198,
 0.00073692,-0.02770255,0.01261545,0.00206806,-0.00115631,0.00017894,-0
 .04790847,0.01400238,-0.00523870,-0.00015007,-0.00004409,-0.00019820,0
 .00118126,0.00078030,-0.00009858,-0.00503560,-0.00287076,-0.00104008,-
 0.00005079,0.00011558,0.00008927,-0.00037668,0.00063709,-0.00022901,-0
 .00145720,0.00450465,-0.00143064,-0.00096001,0.02279746,-0.01152576,0.
 05182910,0.00042059,-0.01604173,0.00636873,0.00096061,0.00077982,-0.00
 021363,0.01340167,-0.26986318,0.09585849,-0.00010151,0.00035084,-0.000
 18456,0.00024143,0.00030275,-0.00040349,-0.00312551,-0.00018303,-0.001
 27964,-0.00014296,-0.00008145,-0.00001706,-0.00069322,0.00054834,0.000
 29409,-0.00007284,0.00377519,-0.00133350,0.00038453,-0.01361410,0.0060
 8602,-0.01142138,0.29394629,0.00043149,-0.00674996,0.00263638,0.000033
 75,0.00017548,-0.00010205,-0.00496838,0.09614097,-0.08958691,0.0001277
 3,-0.00020707,-0.00005759,0.00071080,-0.00023573,0.00036909,-0.0013732
 3,-0.00094905,0.00086126,-0.00003894,0.00013795,-0.00009263,0.00032561
 ,0.00011581,0.00011616,-0.00178417,0.03028282,-0.01180095,-0.00026959,
 -0.01353872,0.00540915,0.00684308,-0.10519045,0.09224902,0.00232638,-0
 .00151117,0.00006324,0.00348497,-0.02396481,0.00077347,-0.00012866,0.0
 0015380,-0.00002064,-0.05644389,0.00419650,-0.00190581,-0.00004819,0.0
 0012659,0.00030393,-0.00025315,0.00067517,-0.00036959,-0.00053281,-0.0
 0050872,-0.00048445,-0.00387083,-0.00264575,-0.00101660,0.00008382,-0.
 00001983,0.00004779,-0.00002076,0.00008805,0.00001025,0.00009853,0.000
 22310,-0.00006793,0.05155149,0.00138874,0.00082860,-0.00041456,0.00249
 490,-0.00967446,0.00172514,-0.00009322,0.00040342,0.00003885,0.0030877
 1,-0.34879510,-0.01558802,-0.00037539,-0.00003975,0.00024976,-0.000825
 17,0.00044489,0.00021277,-0.00020732,-0.00044502,-0.00000790,-0.002146
 87,-0.00031468,-0.00132106,0.00007564,0.00000464,0.00000912,-0.0001075
 2,-0.00001609,-0.00000750,0.00023066,0.00005325,-0.00001116,-0.0009509
 7,0.36528075,-0.00015661,0.00075021,0.00036560,0.00129001,-0.00658606,
 0.00296205,-0.00001560,-0.00011375,-0.00020250,-0.00296900,-0.00972183
 ,-0.01056350,0.00008713,0.00011009,-0.00022675,-0.00013384,0.00020799,
 0.00013216,0.00007484,0.00088478,-0.00055367,-0.00044534,0.00101530,0.
 00006561,-0.00003929,-0.00004093,-0.00003837,0.00003686,0.00003289,0.0
 0001586,0.00003290,0.00002317,-0.00000750,0.00216875,0.01501500,0.0056
 4259,-0.00245969,-0.00386186,-0.00217743,-0.01313333,0.01366227,0.0035
 4910,-0.00084111,0.00116581,0.00087052,-0.28736355,0.12461596,0.009117
 48,0.00009767,-0.00001806,0.00010216,0.00016167,0.00006411,-0.00012725
 ,-0.00045591,-0.00009505,-0.00038782,0.00094265,-0.00017904,0.00033917
 ,0.00006489,0.00001539,-0.00004796,-0.00049685,-0.00028037,-0.00004928
 ,0.00002495,-0.00007450,0.00002978,0.00375309,-0.00257120,0.00006920,0
 .29970552,-0.00177096,-0.00181251,-0.00110436,-0.01434580,0.01033544,0
 .00159022,-0.00092583,0.00075687,0.00034640,0.12507762,-0.12380966,-0.
 00990011,0.00001370,-0.00008369,0.00013787,-0.00031169,0.00036656,-0.0
 0016269,-0.00019535,-0.00001450,-0.00051428,0.00089101,0.00102985,0.00
 041226,0.00007286,0.00002492,0.00001933,-0.00032713,-0.00018005,-0.000
 01036,0.00012697,0.00002700,0.00002911,0.02413805,-0.00773044,-0.00157
 686,-0.13244347,0.12109020,0.00080540,-0.00134990,-0.00010725,-0.00498
 976,0.00481176,0.00268362,-0.00003988,0.00025694,0.00034287,0.01387610
 ,-0.01329714,-0.01164238,-0.00007522,0.00002694,0.00009703,-0.00003449
 ,-0.00005236,-0.00009045,0.00104359,-0.00028731,-0.00029183,0.00031615
 ,-0.00086362,0.00017742,-0.00002163,0.00000938,-0.00002411,-0.00009149
 ,-0.00007955,-0.00004314,0.00000132,-0.00000818,0.00000657,0.00049759,
 0.00009957,0.00240842,-0.01128768,0.01073347,0.00648324\\-0.00000320,0
 .00001044,-0.00001703,0.00000263,-0.00000765,0.00001607,0.00000078,-0.
 00000334,0.00000316,-0.00000105,0.00000428,-0.00000363,-0.00000981,0.0
 0005053,-0.00002061,-0.00000416,-0.00000520,-0.00005447,0.00000939,-0.
 00004778,0.00002048,0.00000365,0.00000805,0.00005369,0.00000734,-0.000
 04333,0.00000582,-0.00000345,0.00001013,-0.00002063,0.00000174,0.00001
 245,0.00004041,-0.00000485,0.00000573,-0.00004354,0.00000099,0.0000056
 9,0.00002029\\\@


 THE BEST WAY TO CONVINCE A FOOL THAT HE IS WRONG 
 IS TO LET HIM HAVE HIS OWN WAY.

                                         JOSH BILLINGS
 Job cpu time:  0 days  1 hours 36 minutes 44.7 seconds.
 File lengths (MBytes):  RWF=   2480 Int=      0 D2E=      0 Chk=     32 Scr=     32
 Normal termination of Gaussian 09 at Tue Mar  7 16:23:35 2017.
