 Entering Gaussian System, Link 0=g09
 Initial command:
 /shared/apps/gaussian/G09_LINUX_LINDA/g09/l1.exe /home/harms.n/Code/AutoTST/ipython_notebooks/Gau-23004.inp -scrdir=/home/harms.n/Code/AutoTST/ipython_notebooks/
 Entering Link 1 = /shared/apps/gaussian/G09_LINUX_LINDA/g09/l1.exe PID=     23005.
  
 Copyright (c) 1988,1990,1992,1993,1995,1998,2003,2009,2010,
            Gaussian, Inc.  All Rights Reserved.
  
 This is part of the Gaussian(R) 09 program.  It is based on
 the Gaussian(R) 03 system (copyright 2003, Gaussian, Inc.),
 the Gaussian(R) 98 system (copyright 1998, Gaussian, Inc.),
 the Gaussian(R) 94 system (copyright 1995, Gaussian, Inc.),
 the Gaussian 92(TM) system (copyright 1992, Gaussian, Inc.),
 the Gaussian 90(TM) system (copyright 1990, Gaussian, Inc.),
 the Gaussian 88(TM) system (copyright 1988, Gaussian, Inc.),
 the Gaussian 86(TM) system (copyright 1986, Carnegie Mellon
 University), and the Gaussian 82(TM) system (copyright 1983,
 Carnegie Mellon University). Gaussian is a federally registered
 trademark of Gaussian, Inc.
  
 This software contains proprietary and confidential information,
 including trade secrets, belonging to Gaussian, Inc.
  
 This software is provided under written license and may be
 used, copied, transmitted, or stored only in accord with that
 written license.
  
 The following legend is applicable only to US Government
 contracts under FAR:
  
                    RESTRICTED RIGHTS LEGEND
  
 Use, reproduction and disclosure by the US Government is
 subject to restrictions as set forth in subparagraphs (a)
 and (c) of the Commercial Computer Software - Restricted
 Rights clause in FAR 52.227-19.
  
 Gaussian, Inc.
 340 Quinnipiac St., Bldg. 40, Wallingford CT 06492
  
  
 ---------------------------------------------------------------
 Warning -- This program may not be used in any manner that
 competes with the business of Gaussian, Inc. or will provide
 assistance to any competitor of Gaussian, Inc.  The licensee
 of this program is prohibited from giving any competitor of
 Gaussian, Inc. access to this program.  By using this program,
 the user acknowledges that Gaussian, Inc. is engaged in the
 business of creating and licensing software in the field of
 computational chemistry and represents and warrants to the
 licensee that it is not a competitor of Gaussian, Inc. and that
 it will not use this program in any manner prohibited above.
 ---------------------------------------------------------------
  

 Cite this work as:
 Gaussian 09, Revision B.01,
 M. J. Frisch, G. W. Trucks, H. B. Schlegel, G. E. Scuseria, 
 M. A. Robb, J. R. Cheeseman, G. Scalmani, V. Barone, B. Mennucci, 
 G. A. Petersson, H. Nakatsuji, M. Caricato, X. Li, H. P. Hratchian, 
 A. F. Izmaylov, J. Bloino, G. Zheng, J. L. Sonnenberg, M. Hada, 
 M. Ehara, K. Toyota, R. Fukuda, J. Hasegawa, M. Ishida, T. Nakajima, 
 Y. Honda, O. Kitao, H. Nakai, T. Vreven, J. A. Montgomery, Jr., 
 J. E. Peralta, F. Ogliaro, M. Bearpark, J. J. Heyd, E. Brothers, 
 K. N. Kudin, V. N. Staroverov, T. Keith, R. Kobayashi, J. Normand, 
 K. Raghavachari, A. Rendell, J. C. Burant, S. S. Iyengar, J. Tomasi, 
 M. Cossi, N. Rega, J. M. Millam, M. Klene, J. E. Knox, J. B. Cross, 
 V. Bakken, C. Adamo, J. Jaramillo, R. Gomperts, R. E. Stratmann, 
 O. Yazyev, A. J. Austin, R. Cammi, C. Pomelli, J. W. Ochterski, 
 R. L. Martin, K. Morokuma, V. G. Zakrzewski, G. A. Voth, 
 P. Salvador, J. J. Dannenberg, S. Dapprich, A. D. Daniels, 
 O. Farkas, J. B. Foresman, J. V. Ortiz, J. Cioslowski, 
 and D. J. Fox, Gaussian, Inc., Wallingford CT, 2010.
 
 ******************************************
 Gaussian 09:  EM64L-G09RevB.01 12-Aug-2010
                 1-May-2018 
 ******************************************
 %nprocshared=20
 Will use up to   20 processors via shared memory.
 %mem=5GB
 ---------------------------------------------------
 #p hf/6-31g* opt=(verytight,gdiis) freq IOP(2/16=3)
 ---------------------------------------------------

 Warning!  Use of Opt=GDIIS is deprecated since it is seldom a good choice.

 1/7=1,18=20,19=11,38=1/1,3;
 2/9=110,12=2,16=3,17=6,18=5,40=1/2;
 3/5=1,6=6,7=1,11=9,16=1,25=1,30=1,71=1/1,2,3;
 4//1;
 5/5=2,38=5/2;
 6/7=2,8=2,9=2,10=2,28=1/1;
 7//1,2,3,16;
 1/7=1,18=20,19=11/3(2);
 2/9=110,16=3/2;
 99//99;
 2/9=110,16=3/2;
 3/5=1,6=6,7=1,11=9,16=1,25=1,30=1,71=1/1,2,3;
 4/5=5,16=3/1;
 5/5=2,38=5/2;
 7//1,2,3,16;
 1/7=1,18=20,19=11/3(-5);
 2/9=110,16=3/2;
 6/7=2,8=2,9=2,10=2,19=2,28=1/1;
 99/9=1/99;
 Leave Link    1 at Tue May  1 13:04:32 2018, MaxMem=  671088640 cpu:       3.3
 (Enter /shared/apps/gaussian/G09_LINUX_LINDA/g09/l101.exe)
 ------------------------------
 Gaussian input prepared by ASE
 ------------------------------
 Symbolic Z-matrix:
 Charge =  0 Multiplicity = 2
 C                     2.1797    0.3125   -0.5781 
 C                     0.9307   -0.2492    0.0127 
 C                    -0.2498   -0.0146   -0.5772 
 C                    -1.42583  -0.06586   0.35275 
 C                    -0.44924  -0.73572  -1.87812 
 H                     2.7824   -0.4991   -1.0572 
 H                     2.8065    0.6546    0.2846 
 H                     1.0056   -0.8579    0.9188 
 H                    -1.44602  -1.12407   0.71875 
 H                    -1.32894   0.6232    1.20158 
 H                    -2.37359   0.07845  -0.18961 
 H                     0.5218   -0.91625  -2.39614 
 H                    -1.09707  -0.17448  -2.57385 
 H                    -0.88521  -1.72683  -1.59124 
 
 NAtoms=     14 NQM=     14 NQMF=      0 NMic=      0 NMicF=      0 NTot=     14.
                    Isotopes and Nuclear Properties:
 (Nuclear quadrupole moments (NQMom) in fm**2, nuclear magnetic moments (NMagM)
  in nuclear magnetons)

  Atom         1           2           3           4           5           6           7           8           9          10
 IAtWgt=          12          12          12          12          12           1           1           1           1           1
 AtmWgt=  12.0000000  12.0000000  12.0000000  12.0000000  12.0000000   1.0078250   1.0078250   1.0078250   1.0078250   1.0078250
 NucSpn=           0           0           0           0           0           1           1           1           1           1
 AtZEff=   0.0000000   0.0000000   0.0000000   0.0000000   0.0000000   0.0000000   0.0000000   0.0000000   0.0000000   0.0000000
 NQMom=    0.0000000   0.0000000   0.0000000   0.0000000   0.0000000   0.0000000   0.0000000   0.0000000   0.0000000   0.0000000
 NMagM=    0.0000000   0.0000000   0.0000000   0.0000000   0.0000000   2.7928460   2.7928460   2.7928460   2.7928460   2.7928460

  Atom        11          12          13          14
 IAtWgt=           1           1           1           1
 AtmWgt=   1.0078250   1.0078250   1.0078250   1.0078250
 NucSpn=           1           1           1           1
 AtZEff=   0.0000000   0.0000000   0.0000000   0.0000000
 NQMom=    0.0000000   0.0000000   0.0000000   0.0000000
 NMagM=    2.7928460   2.7928460   2.7928460   2.7928460
 Leave Link  101 at Tue May  1 13:04:33 2018, MaxMem=  671088640 cpu:       1.2
 (Enter /shared/apps/gaussian/G09_LINUX_LINDA/g09/l103.exe)

 GradGradGradGradGradGradGradGradGradGradGradGradGradGradGradGradGradGrad
 Berny optimization.
 Initialization pass.
                           ----------------------------
                           !    Initial Parameters    !
                           ! (Angstroms and Degrees)  !
 --------------------------                            --------------------------
 ! Name  Definition              Value          Derivative Info.                !
 --------------------------------------------------------------------------------
 ! R1    R(1,2)                  1.4915         estimate D2E/DX2                !
 ! R2    R(1,6)                  1.1187         estimate D2E/DX2                !
 ! R3    R(1,7)                  1.1199         estimate D2E/DX2                !
 ! R4    R(2,3)                  1.3404         estimate D2E/DX2                !
 ! R5    R(2,8)                  1.0941         estimate D2E/DX2                !
 ! R6    R(3,4)                  1.5002         estimate D2E/DX2                !
 ! R7    R(3,5)                  1.5007         estimate D2E/DX2                !
 ! R8    R(4,9)                  1.1199         estimate D2E/DX2                !
 ! R9    R(4,10)                 1.0976         estimate D2E/DX2                !
 ! R10   R(4,11)                 1.1015         estimate D2E/DX2                !
 ! R11   R(5,12)                 1.1153         estimate D2E/DX2                !
 ! R12   R(5,13)                 1.1039         estimate D2E/DX2                !
 ! R13   R(5,14)                 1.1201         estimate D2E/DX2                !
 ! A1    A(2,1,6)              110.3395         estimate D2E/DX2                !
 ! A2    A(2,1,7)              106.1766         estimate D2E/DX2                !
 ! A3    A(6,1,7)              104.4771         estimate D2E/DX2                !
 ! A4    A(1,2,3)              119.8207         estimate D2E/DX2                !
 ! A5    A(1,2,8)              118.7001         estimate D2E/DX2                !
 ! A6    A(3,2,8)              121.4751         estimate D2E/DX2                !
 ! A7    A(2,3,4)              114.3075         estimate D2E/DX2                !
 ! A8    A(2,3,5)              114.4846         estimate D2E/DX2                !
 ! A9    A(4,3,5)              114.6306         estimate D2E/DX2                !
 ! A10   A(3,4,9)              104.4189         estimate D2E/DX2                !
 ! A11   A(3,4,10)             112.8769         estimate D2E/DX2                !
 ! A12   A(3,4,11)             111.3968         estimate D2E/DX2                !
 ! A13   A(9,4,10)             110.0023         estimate D2E/DX2                !
 ! A14   A(9,4,11)             105.6177         estimate D2E/DX2                !
 ! A15   A(10,4,11)            111.9936         estimate D2E/DX2                !
 ! A16   A(3,5,12)             111.3895         estimate D2E/DX2                !
 ! A17   A(3,5,13)             112.3342         estimate D2E/DX2                !
 ! A18   A(3,5,14)             104.7663         estimate D2E/DX2                !
 ! A19   A(12,5,13)            107.4881         estimate D2E/DX2                !
 ! A20   A(12,5,14)            108.3371         estimate D2E/DX2                !
 ! A21   A(13,5,14)            112.51           estimate D2E/DX2                !
 ! D1    D(6,1,2,3)           -107.1696         estimate D2E/DX2                !
 ! D2    D(6,1,2,8)             72.1033         estimate D2E/DX2                !
 ! D3    D(7,1,2,3)            140.178          estimate D2E/DX2                !
 ! D4    D(7,1,2,8)            -40.5491         estimate D2E/DX2                !
 ! D5    D(1,2,3,4)           -153.9251         estimate D2E/DX2                !
 ! D6    D(1,2,3,5)             70.9871         estimate D2E/DX2                !
 ! D7    D(8,2,3,4)             26.8227         estimate D2E/DX2                !
 ! D8    D(8,2,3,5)           -108.2651         estimate D2E/DX2                !
 ! D9    D(2,3,4,9)            -63.3541         estimate D2E/DX2                !
 ! D10   D(2,3,4,10)            56.1061         estimate D2E/DX2                !
 ! D11   D(2,3,4,11)          -176.8881         estimate D2E/DX2                !
 ! D12   D(5,3,4,9)             71.6671         estimate D2E/DX2                !
 ! D13   D(5,3,4,10)          -168.8727         estimate D2E/DX2                !
 ! D14   D(5,3,4,11)           -41.8669         estimate D2E/DX2                !
 ! D15   D(2,3,5,12)           -28.896          estimate D2E/DX2                !
 ! D16   D(2,3,5,13)          -149.5482         estimate D2E/DX2                !
 ! D17   D(2,3,5,14)            88.0186         estimate D2E/DX2                !
 ! D18   D(4,3,5,12)          -163.8368         estimate D2E/DX2                !
 ! D19   D(4,3,5,13)            75.5109         estimate D2E/DX2                !
 ! D20   D(4,3,5,14)           -46.9223         estimate D2E/DX2                !
 --------------------------------------------------------------------------------
 Trust Radius=3.00D-01 FncErr=1.00D-07 GrdErr=1.00D-07
 Number of steps in this run=     64 maximum allowed number of steps=    100.
 GradGradGradGradGradGradGradGradGradGradGradGradGradGradGradGradGradGrad

 Leave Link  103 at Tue May  1 13:04:33 2018, MaxMem=  671088640 cpu:       0.2
 (Enter /shared/apps/gaussian/G09_LINUX_LINDA/g09/l202.exe)
                          Input orientation:                          
 ---------------------------------------------------------------------
 Center     Atomic      Atomic             Coordinates (Angstroms)
 Number     Number       Type             X           Y           Z
 ---------------------------------------------------------------------
      1          6           0        2.179700    0.312500   -0.578100
      2          6           0        0.930700   -0.249200    0.012700
      3          6           0       -0.249800   -0.014600   -0.577200
      4          6           0       -1.425831   -0.065859    0.352748
      5          6           0       -0.449240   -0.735715   -1.878123
      6          1           0        2.782400   -0.499100   -1.057200
      7          1           0        2.806500    0.654600    0.284600
      8          1           0        1.005600   -0.857900    0.918800
      9          1           0       -1.446015   -1.124067    0.718748
     10          1           0       -1.328942    0.623202    1.201580
     11          1           0       -2.373591    0.078454   -0.189614
     12          1           0        0.521797   -0.916246   -2.396139
     13          1           0       -1.097068   -0.174477   -2.573849
     14          1           0       -0.885208   -1.726831   -1.591242
 ---------------------------------------------------------------------
                    Distance matrix (angstroms):
                    1          2          3          4          5
     1  C    0.000000
     2  C    1.491493   0.000000
     3  C    2.451421   1.340373   0.000000
     4  C    3.742925   2.387987   1.500160   0.000000
     5  C    3.114505   2.390845   1.500728   2.525713   0.000000
     6  H    1.118695   2.153121   3.107954   4.459244   3.342663
     7  H    1.119894   2.099859   3.245227   4.293754   4.148516
     8  H    2.233620   1.094140   2.127252   2.619083   3.155038
     9  H    4.109909   2.629196   2.083585   1.119896   2.808579
    10  H    3.946437   2.698240   2.176096   1.097592   3.479239
    11  H    4.575823   3.326654   2.160872   1.101468   2.686459
    12  H    2.750223   2.532718   2.171835   3.474593   1.115278
    13  H    3.867476   3.287501   2.174864   2.947008   1.103950
    14  H    3.818244   2.837876   2.088961   2.613465   1.120124
                    6          7          8          9         10
     6  H    0.000000
     7  H    1.769755   0.000000
     8  H    2.681479   2.435797   0.000000
     9  H    4.628614   4.629905   2.474122   0.000000
    10  H    4.823357   4.236002   2.779157   1.816530   0.000000
    11  H    5.260277   5.233561   3.677536   1.769626   1.823036
    12  H    2.660281   3.856655   3.350566   3.690257   4.328824
    13  H    4.178023   4.908762   4.133628   3.444514   3.865737
    14  H    3.904340   4.776892   3.260445   2.452321   3.676874
                   11         12         13         14
    11  H    0.000000
    12  H    3.773785   0.000000
    13  H    2.716259   1.789560   0.000000
    14  H    2.727435   1.812338   1.849379   0.000000
 Stoichiometry    C5H9(2)
 Framework group  C1[X(C5H9)]
 Deg. of freedom    36
 Full point group                 C1      NOp   1
 Largest Abelian subgroup         C1      NOp   1
 Largest concise Abelian subgroup C1      NOp   1
                         Standard orientation:                         
 ---------------------------------------------------------------------
 Center     Atomic      Atomic             Coordinates (Angstroms)
 Number     Number       Type             X           Y           Z
 ---------------------------------------------------------------------
      1          6           0       -2.076811   -0.079569   -0.278718
      2          6           0       -0.757988   -0.504473    0.273294
      3          6           0        0.373646   -0.015741   -0.253150
      4          6           0        1.568278   -0.907454   -0.085277
      5          6           0        0.626281    1.432087    0.050417
      6          1           0       -2.591657    0.612630    0.433513
      7          1           0       -2.719576   -0.996542   -0.291906
      8          1           0       -0.741186   -1.204914    1.113677
      9          1           0        1.719623   -0.965226    1.022841
     10          1           0        1.411029   -1.913217   -0.495667
     11          1           0        2.480381   -0.436791   -0.484998
     12          1           0       -0.328577    1.990303    0.193549
     13          1           0        1.188626    1.937462   -0.753990
     14          1           0        1.180899    1.427190    1.023584
 ---------------------------------------------------------------------
 Rotational constants (GHZ):      8.0852574      3.8633029      2.8306742
 Leave Link  202 at Tue May  1 13:04:33 2018, MaxMem=  671088640 cpu:       1.0
 (Enter /shared/apps/gaussian/G09_LINUX_LINDA/g09/l301.exe)
 Standard basis: 6-31G(d) (6D, 7F)
 Ernie: Thresh=  0.10000D-02 Tol=  0.10000D-05 Strict=F.
 There are    93 symmetry adapted basis functions of A   symmetry.
 Integral buffers will be    131072 words long.
 Raffenetti 2 integral format.
 Two-electron integral symmetry is turned on.
    93 basis functions,   176 primitive gaussians,    93 cartesian basis functions
    20 alpha electrons       19 beta electrons
       nuclear repulsion energy       167.3446462952 Hartrees.
 IExCor=    0 DFT=F Ex=HF Corr=None ExCW=0 ScaHFX=  1.000000
 ScaDFX=  1.000000  1.000000  1.000000  1.000000 ScalE2=  1.000000  1.000000
 IRadAn=      0 IRanWt=     -1 IRanGd=            0 ICorTp=0
 NAtoms=   14 NActive=   14 NUniq=   14 SFac= 1.00D+00 NAtFMM=   50 NAOKFM=F Big=F
 Leave Link  301 at Tue May  1 13:04:34 2018, MaxMem=  671088640 cpu:       1.0
 (Enter /shared/apps/gaussian/G09_LINUX_LINDA/g09/l302.exe)
 NPDir=0 NMtPBC=     1 NCelOv=     1 NCel=       1 NClECP=     1 NCelD=      1
         NCelK=      1 NCelE2=     1 NClLst=     1 CellRange=     0.0.
 One-electron integrals computed using PRISM.
 NBasis=    93 RedAO= T  NBF=    93
 NBsUse=    93 1.00D-06 NBFU=    93
 Leave Link  302 at Tue May  1 13:04:34 2018, MaxMem=  671088640 cpu:       6.1
 (Enter /shared/apps/gaussian/G09_LINUX_LINDA/g09/l303.exe)
 DipDrv:  MaxL=1.
 Leave Link  303 at Tue May  1 13:04:35 2018, MaxMem=  671088640 cpu:       2.8
 (Enter /shared/apps/gaussian/G09_LINUX_LINDA/g09/l401.exe)
 Harris functional with IExCor=  205 diagonalized for initial guess.
 ExpMin= 1.61D-01 ExpMax= 3.05D+03 ExpMxC= 4.57D+02 IAcc=1 IRadAn=         1 AccDes= 0.00D+00
 HarFok:  IExCor=  205 AccDes= 0.00D+00 IRadAn=         1 IDoV= 1
 ScaDFX=  1.000000  1.000000  1.000000  1.000000
 FoFCou: FMM=F IPFlag=           0 FMFlag=      100000 FMFlg1=           0
         NFxFlg=           0 DoJE=T BraDBF=F KetDBF=T FulRan=T
         Omega=  0.000000  0.000000  1.000000  0.000000  0.000000 ICntrl=     500 IOpCl=  0
         NMat0=    1 NMatS0=    1 NMatT0=    0 NMatD0=    1 NMtDS0=    0 NMtDT0=    0
         I1Cent=           4 NGrid=           0.
 Petite list used in FoFCou.
 Harris En= -194.829712798624    
 Initial guess orbital symmetries:
 Alpha Orbitals:
       Occupied  (A) (A) (A) (A) (A) (A) (A) (A) (A) (A) (A) (A)
                 (A) (A) (A) (A) (A) (A) (A) (A)
       Virtual   (A) (A) (A) (A) (A) (A) (A) (A) (A) (A) (A) (A)
                 (A) (A) (A) (A) (A) (A) (A) (A) (A) (A) (A) (A)
                 (A) (A) (A) (A) (A) (A) (A) (A) (A) (A) (A) (A)
                 (A) (A) (A) (A) (A) (A) (A) (A) (A) (A) (A) (A)
                 (A) (A) (A) (A) (A) (A) (A) (A) (A) (A) (A) (A)
                 (A) (A) (A) (A) (A) (A) (A) (A) (A) (A) (A) (A)
                 (A)
 Beta  Orbitals:
       Occupied  (A) (A) (A) (A) (A) (A) (A) (A) (A) (A) (A) (A)
                 (A) (A) (A) (A) (A) (A) (A)
       Virtual   (A) (A) (A) (A) (A) (A) (A) (A) (A) (A) (A) (A)
                 (A) (A) (A) (A) (A) (A) (A) (A) (A) (A) (A) (A)
                 (A) (A) (A) (A) (A) (A) (A) (A) (A) (A) (A) (A)
                 (A) (A) (A) (A) (A) (A) (A) (A) (A) (A) (A) (A)
                 (A) (A) (A) (A) (A) (A) (A) (A) (A) (A) (A) (A)
                 (A) (A) (A) (A) (A) (A) (A) (A) (A) (A) (A) (A)
                 (A) (A)
 The electronic state of the initial guess is 2-A.
 Initial guess <Sx>= 0.0000 <Sy>= 0.0000 <Sz>= 0.5000 <S**2>= 0.7500 S= 0.5000
 Leave Link  401 at Tue May  1 13:04:37 2018, MaxMem=  671088640 cpu:      20.3
 (Enter /shared/apps/gaussian/G09_LINUX_LINDA/g09/l502.exe)
 UHF open shell SCF:
 Requested convergence on RMS density matrix=1.00D-08 within 128 cycles.
 Requested convergence on MAX density matrix=1.00D-06.
 Requested convergence on             energy=1.00D-06.
 No special actions if energy rises.
 Using DIIS extrapolation, IDIIS=  1040.
 Integral symmetry usage will be decided dynamically.
 Keep R1 and R2 ints in memory in canonical form, NReq=19976703.
 IEnd=       46670 IEndB=       46670 NGot=   671088640 MDV=   651957313
 LenX=   651957313 LenY=   651948223
 Symmetry not used in FoFDir.
 MinBra= 0 MaxBra= 2 Meth= 1.
 IRaf=       0 NMat=   1 IRICut=       1 DoRegI=T DoRafI=F ISym2E= 0 JSym2E=0.

 Cycle   1  Pass 1  IDiag  1:
 E= -194.106486703485    
 DIIS: error= 5.84D-02 at cycle   1 NSaved=   1.
 NSaved= 1 IEnMin= 1 EnMin= -194.106486703485     IErMin= 1 ErrMin= 5.84D-02
 ErrMax= 5.84D-02 EMaxC= 1.00D-01 BMatC= 1.49D+00 BMatP= 1.49D+00
 IDIUse=3 WtCom= 4.16D-01 WtEn= 5.84D-01
 Coeff-Com:  0.100D+01
 Coeff-En:   0.100D+01
 Coeff:      0.100D+01
 Gap=     0.483 Goal=   None    Shift=    0.000
 Gap=     0.373 Goal=   None    Shift=    0.000
 GapD=    0.373 DampG=1.000 DampE=0.500 DampFc=0.5000 IDamp=-1.
 Damping current iteration by 5.00D-01
 RMSDP=7.18D-03 MaxDP=1.12D-01              OVMax= 1.59D-01

 Cycle   2  Pass 1  IDiag  1:
 E= -194.264427138535     Delta-E=       -0.157940435049 Rises=F Damp=T
 DIIS: error= 3.24D-02 at cycle   2 NSaved=   2.
 NSaved= 2 IEnMin= 2 EnMin= -194.264427138535     IErMin= 2 ErrMin= 3.24D-02
 ErrMax= 3.24D-02 EMaxC= 1.00D-01 BMatC= 3.06D-01 BMatP= 1.49D+00
 IDIUse=3 WtCom= 6.76D-01 WtEn= 3.24D-01
 Coeff-Com: -0.631D+00 0.163D+01
 Coeff-En:   0.000D+00 0.100D+01
 Coeff:     -0.426D+00 0.143D+01
 Gap=     0.417 Goal=   None    Shift=    0.000
 Gap=     0.378 Goal=   None    Shift=    0.000
 RMSDP=2.71D-03 MaxDP=3.36D-02 DE=-1.58D-01 OVMax= 7.20D-02

 Cycle   3  Pass 1  IDiag  1:
 E= -194.408498447587     Delta-E=       -0.144071309052 Rises=F Damp=F
 DIIS: error= 6.73D-03 at cycle   3 NSaved=   3.
 NSaved= 3 IEnMin= 3 EnMin= -194.408498447587     IErMin= 3 ErrMin= 6.73D-03
 ErrMax= 6.73D-03 EMaxC= 1.00D-01 BMatC= 5.17D-03 BMatP= 3.06D-01
 IDIUse=3 WtCom= 9.33D-01 WtEn= 6.73D-02
 Coeff-Com:  0.279D-01-0.104D+00 0.108D+01
 Coeff-En:   0.000D+00 0.000D+00 0.100D+01
 Coeff:      0.260D-01-0.968D-01 0.107D+01
 Gap=     0.411 Goal=   None    Shift=    0.000
 Gap=     0.388 Goal=   None    Shift=    0.000
 RMSDP=7.77D-04 MaxDP=1.25D-02 DE=-1.44D-01 OVMax= 5.73D-02

 Cycle   4  Pass 1  IDiag  1:
 E= -194.412809475736     Delta-E=       -0.004311028149 Rises=F Damp=F
 DIIS: error= 5.05D-03 at cycle   4 NSaved=   4.
 NSaved= 4 IEnMin= 4 EnMin= -194.412809475736     IErMin= 4 ErrMin= 5.05D-03
 ErrMax= 5.05D-03 EMaxC= 1.00D-01 BMatC= 1.61D-03 BMatP= 5.17D-03
 IDIUse=3 WtCom= 9.49D-01 WtEn= 5.05D-02
 Coeff-Com:  0.155D-01-0.407D-01 0.763D-01 0.949D+00
 Coeff-En:   0.000D+00 0.000D+00 0.000D+00 0.100D+01
 Coeff:      0.147D-01-0.386D-01 0.724D-01 0.952D+00
 Gap=     0.414 Goal=   None    Shift=    0.000
 Gap=     0.401 Goal=   None    Shift=    0.000
 RMSDP=4.56D-04 MaxDP=8.74D-03 DE=-4.31D-03 OVMax= 3.72D-02

 Cycle   5  Pass 1  IDiag  1:
 E= -194.414805101614     Delta-E=       -0.001995625878 Rises=F Damp=F
 DIIS: error= 2.94D-03 at cycle   5 NSaved=   5.
 NSaved= 5 IEnMin= 5 EnMin= -194.414805101614     IErMin= 5 ErrMin= 2.94D-03
 ErrMax= 2.94D-03 EMaxC= 1.00D-01 BMatC= 1.10D-03 BMatP= 1.61D-03
 IDIUse=3 WtCom= 9.71D-01 WtEn= 2.94D-02
 Coeff-Com: -0.972D-02 0.342D-01-0.327D+00 0.135D+00 0.117D+01
 Coeff-En:   0.000D+00 0.000D+00 0.000D+00 0.000D+00 0.100D+01
 Coeff:     -0.944D-02 0.332D-01-0.317D+00 0.131D+00 0.116D+01
 Gap=     0.416 Goal=   None    Shift=    0.000
 Gap=     0.410 Goal=   None    Shift=    0.000
 RMSDP=5.64D-04 MaxDP=9.79D-03 DE=-2.00D-03 OVMax= 4.56D-02

 Cycle   6  Pass 1  IDiag  1:
 E= -194.417000035464     Delta-E=       -0.002194933850 Rises=F Damp=F
 DIIS: error= 2.19D-03 at cycle   6 NSaved=   6.
 NSaved= 6 IEnMin= 6 EnMin= -194.417000035464     IErMin= 6 ErrMin= 2.19D-03
 ErrMax= 2.19D-03 EMaxC= 1.00D-01 BMatC= 8.59D-04 BMatP= 1.10D-03
 IDIUse=3 WtCom= 9.78D-01 WtEn= 2.19D-02
 Coeff-Com: -0.547D-02 0.179D-01-0.146D+00 0.478D-01 0.494D+00 0.592D+00
 Coeff-En:   0.000D+00 0.000D+00 0.000D+00 0.000D+00 0.000D+00 0.100D+01
 Coeff:     -0.535D-02 0.175D-01-0.143D+00 0.468D-01 0.483D+00 0.601D+00
 Gap=     0.418 Goal=   None    Shift=    0.000
 Gap=     0.412 Goal=   None    Shift=    0.000
 RMSDP=2.33D-04 MaxDP=5.72D-03 DE=-2.19D-03 OVMax= 1.65D-02

 Cycle   7  Pass 1  IDiag  1:
 E= -194.417932690541     Delta-E=       -0.000932655077 Rises=F Damp=F
 DIIS: error= 2.33D-03 at cycle   7 NSaved=   7.
 NSaved= 7 IEnMin= 7 EnMin= -194.417932690541     IErMin= 6 ErrMin= 2.19D-03
 ErrMax= 2.33D-03 EMaxC= 1.00D-01 BMatC= 9.27D-04 BMatP= 8.59D-04
 IDIUse=3 WtCom= 9.78D-01 WtEn= 2.19D-02
 Coeff-Com: -0.870D-02 0.245D-01-0.114D+00-0.214D+00 0.321D+00 0.464D+01
 Coeff-Com: -0.365D+01
 Coeff-En:   0.000D+00 0.000D+00 0.000D+00 0.000D+00 0.000D+00 0.000D+00
 Coeff-En:   0.100D+01
 Coeff:     -0.851D-02 0.240D-01-0.112D+00-0.209D+00 0.314D+00 0.454D+01
 Coeff:     -0.355D+01
 Gap=     0.415 Goal=   None    Shift=    0.000
 Gap=     0.407 Goal=   None    Shift=    0.000
 RMSDP=6.40D-04 MaxDP=1.65D-02 DE=-9.33D-04 OVMax= 4.61D-02

 Cycle   8  Pass 1  IDiag  1:
 E= -194.415595832021     Delta-E=        0.002336858520 Rises=F Damp=F
 DIIS: error= 1.88D-03 at cycle   8 NSaved=   8.
 NSaved= 8 IEnMin= 7 EnMin= -194.417932690541     IErMin= 8 ErrMin= 1.88D-03
 ErrMax= 1.88D-03 EMaxC= 1.00D-01 BMatC= 6.47D-04 BMatP= 8.59D-04
 IDIUse=3 WtCom= 9.81D-01 WtEn= 1.88D-02
 Rare condition: small coef for last iteration:  0.000D+00
 Coeff-Com:  0.102D-01-0.467D-01 0.623D+00-0.202D+00-0.225D+01 0.214D+01
 Coeff-Com: -0.376D+01 0.449D+01
 Coeff-En:   0.000D+00 0.000D+00 0.000D+00 0.000D+00 0.000D+00 0.000D+00
 Coeff-En:   0.000D+00 0.100D+01
 Coeff:      0.102D-01-0.467D-01 0.623D+00-0.202D+00-0.225D+01 0.214D+01
 Coeff:     -0.376D+01 0.449D+01
 Gap=     0.408 Goal=   None    Shift=    0.000
 Gap=     0.398 Goal=   None    Shift=    0.000
 RMSDP=1.68D-03 MaxDP=4.19D-02 DE= 2.34D-03 OVMax= 1.23D-01

 Cycle   9  Pass 1  IDiag  1:
 E= -194.413006459165     Delta-E=        0.002589372855 Rises=F Damp=F
 DIIS: error= 1.07D-03 at cycle   9 NSaved=   9.
 NSaved= 9 IEnMin= 7 EnMin= -194.417932690541     IErMin= 9 ErrMin= 1.07D-03
 ErrMax= 1.07D-03 EMaxC= 1.00D-01 BMatC= 1.24D-04 BMatP= 6.47D-04
 IDIUse=3 WtCom= 9.89D-01 WtEn= 1.07D-02
 Rare condition: small coef for last iteration:  0.000D+00
 Coeff-Com: -0.220D-02 0.556D-02-0.371D-01 0.203D+00-0.553D-01-0.285D+01
 Coeff-Com:  0.292D+01-0.423D+00 0.124D+01
 Coeff-En:   0.000D+00 0.000D+00 0.000D+00 0.000D+00 0.000D+00 0.000D+00
 Coeff-En:   0.000D+00 0.000D+00 0.100D+01
 Coeff:     -0.220D-02 0.556D-02-0.371D-01 0.203D+00-0.553D-01-0.285D+01
 Coeff:      0.292D+01-0.423D+00 0.124D+01
 Gap=     0.402 Goal=   None    Shift=    0.000
 Gap=     0.399 Goal=   None    Shift=    0.000
 RMSDP=3.37D-04 MaxDP=6.17D-03 DE= 2.59D-03 OVMax= 2.32D-02

 Cycle  10  Pass 1  IDiag  1:
 E= -194.413230360455     Delta-E=       -0.000223901290 Rises=F Damp=F
 DIIS: error= 3.74D-04 at cycle  10 NSaved=  10.
 NSaved=10 IEnMin= 7 EnMin= -194.417932690541     IErMin=10 ErrMin= 3.74D-04
 ErrMax= 3.74D-04 EMaxC= 1.00D-01 BMatC= 3.09D-05 BMatP= 1.24D-04
 IDIUse=3 WtCom= 9.96D-01 WtEn= 3.74D-03
 Coeff-Com: -0.388D-03 0.571D-02-0.121D+00 0.576D-01 0.440D+00-0.466D+00
 Coeff-Com:  0.698D+00-0.920D+00 0.155D+00 0.115D+01
 Coeff-En:   0.000D+00 0.000D+00 0.000D+00 0.000D+00 0.000D+00 0.000D+00
 Coeff-En:   0.000D+00 0.000D+00 0.000D+00 0.100D+01
 Coeff:     -0.387D-03 0.568D-02-0.121D+00 0.574D-01 0.438D+00-0.464D+00
 Coeff:      0.695D+00-0.917D+00 0.154D+00 0.115D+01
 Gap=     0.407 Goal=   None    Shift=    0.000
 Gap=     0.402 Goal=   None    Shift=    0.000
 RMSDP=1.99D-04 MaxDP=4.37D-03 DE=-2.24D-04 OVMax= 1.42D-02

 Cycle  11  Pass 1  IDiag  1:
 E= -194.413191772009     Delta-E=        0.000038588446 Rises=F Damp=F
 DIIS: error= 1.74D-04 at cycle  11 NSaved=  11.
 NSaved=11 IEnMin= 7 EnMin= -194.417932690541     IErMin=11 ErrMin= 1.74D-04
 ErrMax= 1.74D-04 EMaxC= 1.00D-01 BMatC= 5.14D-06 BMatP= 3.09D-05
 IDIUse=3 WtCom= 9.98D-01 WtEn= 1.74D-03
 Rare condition: small coef for last iteration:  0.000D+00
 Coeff-Com: -0.430D-03 0.132D-02-0.845D-02-0.147D-01 0.748D-01 0.154D+00
 Coeff-Com: -0.136D+00-0.506D-01-0.380D-01-0.494D+00 0.151D+01
 Coeff-En:   0.000D+00 0.000D+00 0.000D+00 0.000D+00 0.000D+00 0.000D+00
 Coeff-En:   0.000D+00 0.000D+00 0.000D+00 0.000D+00 0.100D+01
 Coeff:     -0.430D-03 0.132D-02-0.845D-02-0.147D-01 0.748D-01 0.154D+00
 Coeff:     -0.136D+00-0.506D-01-0.380D-01-0.494D+00 0.151D+01
 Gap=     0.408 Goal=   None    Shift=    0.000
 Gap=     0.402 Goal=   None    Shift=    0.000
 RMSDP=7.92D-05 MaxDP=1.55D-03 DE= 3.86D-05 OVMax= 5.16D-03

 Cycle  12  Pass 1  IDiag  1:
 E= -194.413191522693     Delta-E=        0.000000249316 Rises=F Damp=F
 DIIS: error= 4.11D-05 at cycle  12 NSaved=  12.
 NSaved=12 IEnMin= 7 EnMin= -194.417932690541     IErMin=12 ErrMin= 4.11D-05
 ErrMax= 4.11D-05 EMaxC= 1.00D-01 BMatC= 4.78D-07 BMatP= 5.14D-06
 IDIUse=1 WtCom= 1.00D+00 WtEn= 0.00D+00
 Coeff-Com: -0.948D-04-0.130D-03 0.759D-02-0.348D-03-0.386D-01-0.495D-01
 Coeff-Com:  0.205D-01 0.847D-01-0.552D-03-0.367D-01-0.327D+00 0.134D+01
 Coeff:     -0.948D-04-0.130D-03 0.759D-02-0.348D-03-0.386D-01-0.495D-01
 Coeff:      0.205D-01 0.847D-01-0.552D-03-0.367D-01-0.327D+00 0.134D+01
 Gap=     0.408 Goal=   None    Shift=    0.000
 Gap=     0.402 Goal=   None    Shift=    0.000
 RMSDP=1.38D-05 MaxDP=2.75D-04 DE= 2.49D-07 OVMax= 4.22D-04

 Cycle  13  Pass 1  IDiag  1:
 E= -194.413192051993     Delta-E=       -0.000000529299 Rises=F Damp=F
 DIIS: error= 1.78D-05 at cycle  13 NSaved=  13.
 NSaved=13 IEnMin= 7 EnMin= -194.417932690541     IErMin=13 ErrMin= 1.78D-05
 ErrMax= 1.78D-05 EMaxC= 1.00D-01 BMatC= 6.73D-08 BMatP= 4.78D-07
 IDIUse=1 WtCom= 1.00D+00 WtEn= 0.00D+00
 Coeff-Com:  0.101D-03-0.328D-03 0.295D-02-0.291D-03-0.120D-01-0.662D-02
 Coeff-Com: -0.567D-03 0.180D-01 0.200D-02 0.379D-01-0.105D+00-0.152D+00
 Coeff-Com:  0.122D+01
 Coeff:      0.101D-03-0.328D-03 0.295D-02-0.291D-03-0.120D-01-0.662D-02
 Coeff:     -0.567D-03 0.180D-01 0.200D-02 0.379D-01-0.105D+00-0.152D+00
 Coeff:      0.122D+01
 Gap=     0.408 Goal=   None    Shift=    0.000
 Gap=     0.402 Goal=   None    Shift=    0.000
 RMSDP=4.44D-06 MaxDP=8.31D-05 DE=-5.29D-07 OVMax= 1.20D-04

 Cycle  14  Pass 1  IDiag  1:
 E= -194.413192119122     Delta-E=       -0.000000067129 Rises=F Damp=F
 DIIS: error= 7.37D-06 at cycle  14 NSaved=  14.
 NSaved=14 IEnMin= 7 EnMin= -194.417932690541     IErMin=14 ErrMin= 7.37D-06
 ErrMax= 7.37D-06 EMaxC= 1.00D-01 BMatC= 1.41D-08 BMatP= 6.73D-08
 IDIUse=1 WtCom= 1.00D+00 WtEn= 0.00D+00
 Coeff-Com:  0.999D-05 0.402D-04-0.145D-02-0.564D-03 0.844D-02 0.108D-01
 Coeff-Com: -0.606D-02-0.154D-01-0.223D-02 0.105D-01 0.660D-01-0.265D+00
 Coeff-Com: -0.403D-01 0.123D+01
 Coeff:      0.999D-05 0.402D-04-0.145D-02-0.564D-03 0.844D-02 0.108D-01
 Coeff:     -0.606D-02-0.154D-01-0.223D-02 0.105D-01 0.660D-01-0.265D+00
 Coeff:     -0.403D-01 0.123D+01
 Gap=     0.408 Goal=   None    Shift=    0.000
 Gap=     0.402 Goal=   None    Shift=    0.000
 RMSDP=2.29D-06 MaxDP=3.73D-05 DE=-6.71D-08 OVMax= 1.06D-04

 Cycle  15  Pass 1  IDiag  1:
 E= -194.413192132378     Delta-E=       -0.000000013256 Rises=F Damp=F
 DIIS: error= 2.81D-06 at cycle  15 NSaved=  15.
 NSaved=15 IEnMin= 7 EnMin= -194.417932690541     IErMin=15 ErrMin= 2.81D-06
 ErrMax= 2.81D-06 EMaxC= 1.00D-01 BMatC= 2.28D-09 BMatP= 1.41D-08
 IDIUse=1 WtCom= 1.00D+00 WtEn= 0.00D+00
 Coeff-Com: -0.662D-05-0.188D-04 0.792D-03-0.285D-03-0.297D-02 0.864D-03
 Coeff-Com: -0.407D-02 0.827D-02-0.198D-02-0.920D-02-0.106D-01 0.133D+00
 Coeff-Com: -0.144D+00-0.551D+00 0.158D+01
 Coeff:     -0.662D-05-0.188D-04 0.792D-03-0.285D-03-0.297D-02 0.864D-03
 Coeff:     -0.407D-02 0.827D-02-0.198D-02-0.920D-02-0.106D-01 0.133D+00
 Coeff:     -0.144D+00-0.551D+00 0.158D+01
 Gap=     0.408 Goal=   None    Shift=    0.000
 Gap=     0.402 Goal=   None    Shift=    0.000
 RMSDP=1.06D-06 MaxDP=1.41D-05 DE=-1.33D-08 OVMax= 4.26D-05

 Cycle  16  Pass 1  IDiag  1:
 E= -194.413192135420     Delta-E=       -0.000000003042 Rises=F Damp=F
 DIIS: error= 9.13D-07 at cycle  16 NSaved=  16.
 NSaved=16 IEnMin= 7 EnMin= -194.417932690541     IErMin=16 ErrMin= 9.13D-07
 ErrMax= 9.13D-07 EMaxC= 1.00D-01 BMatC= 4.30D-10 BMatP= 2.28D-09
 IDIUse=1 WtCom= 1.00D+00 WtEn= 0.00D+00
 Coeff-Com:  0.301D-05-0.918D-05 0.725D-04 0.109D-03-0.924D-03-0.514D-03
 Coeff-Com:  0.739D-03 0.760D-03-0.171D-03 0.272D-02-0.753D-02-0.255D-02
 Coeff-Com:  0.625D-01-0.346D-01-0.507D+00 0.149D+01
 Coeff:      0.301D-05-0.918D-05 0.725D-04 0.109D-03-0.924D-03-0.514D-03
 Coeff:      0.739D-03 0.760D-03-0.171D-03 0.272D-02-0.753D-02-0.255D-02
 Coeff:      0.625D-01-0.346D-01-0.507D+00 0.149D+01
 Gap=     0.408 Goal=   None    Shift=    0.000
 Gap=     0.402 Goal=   None    Shift=    0.000
 RMSDP=6.92D-07 MaxDP=1.43D-05 DE=-3.04D-09 OVMax= 4.04D-05

 Cycle  17  Pass 1  IDiag  1:
 E= -194.413192135671     Delta-E=       -0.000000000251 Rises=F Damp=F
 DIIS: error= 3.81D-07 at cycle  17 NSaved=  17.
 NSaved=17 IEnMin= 7 EnMin= -194.417932690541     IErMin=17 ErrMin= 3.81D-07
 ErrMax= 3.81D-07 EMaxC= 1.00D-01 BMatC= 6.13D-11 BMatP= 4.30D-10
 IDIUse=1 WtCom= 1.00D+00 WtEn= 0.00D+00
 Coeff-Com:  0.117D-05 0.127D-05-0.894D-04 0.195D-04 0.461D-03-0.160D-03
 Coeff-Com:  0.649D-03-0.129D-02 0.691D-03 0.251D-03 0.287D-02-0.186D-01
 Coeff-Com:  0.532D-02 0.101D+00-0.139D+00-0.371D+00 0.142D+01
 Coeff:      0.117D-05 0.127D-05-0.894D-04 0.195D-04 0.461D-03-0.160D-03
 Coeff:      0.649D-03-0.129D-02 0.691D-03 0.251D-03 0.287D-02-0.186D-01
 Coeff:      0.532D-02 0.101D+00-0.139D+00-0.371D+00 0.142D+01
 Gap=     0.408 Goal=   None    Shift=    0.000
 Gap=     0.402 Goal=   None    Shift=    0.000
 RMSDP=1.74D-07 MaxDP=2.29D-06 DE=-2.51D-10 OVMax= 5.08D-06

 Cycle  18  Pass 1  IDiag  1:
 E= -194.413192135745     Delta-E=       -0.000000000074 Rises=F Damp=F
 DIIS: error= 1.93D-07 at cycle  18 NSaved=  18.
 NSaved=18 IEnMin= 7 EnMin= -194.417932690541     IErMin=18 ErrMin= 1.93D-07
 ErrMax= 1.93D-07 EMaxC= 1.00D-01 BMatC= 1.05D-11 BMatP= 6.13D-11
 IDIUse=1 WtCom= 1.00D+00 WtEn= 0.00D+00
 Coeff-Com: -0.609D-06 0.809D-06 0.887D-05-0.988D-07 0.342D-04-0.163D-04
 Coeff-Com: -0.988D-04 0.744D-04 0.498D-04-0.656D-03 0.622D-03 0.376D-02
 Coeff-Com: -0.110D-01-0.946D-02 0.101D+00-0.178D+00-0.198D+00 0.129D+01
 Coeff:     -0.609D-06 0.809D-06 0.887D-05-0.988D-07 0.342D-04-0.163D-04
 Coeff:     -0.988D-04 0.744D-04 0.498D-04-0.656D-03 0.622D-03 0.376D-02
 Coeff:     -0.110D-01-0.946D-02 0.101D+00-0.178D+00-0.198D+00 0.129D+01
 Gap=     0.408 Goal=   None    Shift=    0.000
 Gap=     0.402 Goal=   None    Shift=    0.000
 RMSDP=9.84D-08 MaxDP=1.57D-06 DE=-7.38D-11 OVMax= 5.76D-06

 Cycle  19  Pass 1  IDiag  1:
 E= -194.413192135753     Delta-E=       -0.000000000008 Rises=F Damp=F
 DIIS: error= 8.32D-08 at cycle  19 NSaved=  19.
 NSaved=19 IEnMin= 7 EnMin= -194.417932690541     IErMin=19 ErrMin= 8.32D-08
 ErrMax= 8.32D-08 EMaxC= 1.00D-01 BMatC= 2.02D-12 BMatP= 1.05D-11
 IDIUse=1 WtCom= 1.00D+00 WtEn= 0.00D+00
 Coeff-Com: -0.210D-06 0.123D-07 0.992D-05-0.244D-05-0.755D-04 0.124D-03
 Coeff-Com: -0.186D-03 0.198D-03-0.186D-03 0.915D-04-0.455D-03 0.273D-02
 Coeff-Com:  0.795D-04-0.177D-01 0.193D-01 0.750D-01-0.257D+00-0.252D-01
 Coeff-Com:  0.120D+01
 Coeff:     -0.210D-06 0.123D-07 0.992D-05-0.244D-05-0.755D-04 0.124D-03
 Coeff:     -0.186D-03 0.198D-03-0.186D-03 0.915D-04-0.455D-03 0.273D-02
 Coeff:      0.795D-04-0.177D-01 0.193D-01 0.750D-01-0.257D+00-0.252D-01
 Coeff:      0.120D+01
 Gap=     0.408 Goal=   None    Shift=    0.000
 Gap=     0.402 Goal=   None    Shift=    0.000
 RMSDP=2.67D-08 MaxDP=3.98D-07 DE=-7.96D-12 OVMax= 7.63D-07

 Cycle  20  Pass 1  IDiag  1:
 E= -194.413192135754     Delta-E=       -0.000000000002 Rises=F Damp=F
 DIIS: error= 2.69D-08 at cycle  20 NSaved=  20.
 NSaved=20 IEnMin= 7 EnMin= -194.417932690541     IErMin=20 ErrMin= 2.69D-08
 ErrMax= 2.69D-08 EMaxC= 1.00D-01 BMatC= 3.38D-13 BMatP= 2.02D-12
 IDIUse=1 WtCom= 1.00D+00 WtEn= 0.00D+00
 Coeff-Com:  0.155D-06-0.204D-06-0.163D-05-0.292D-05 0.905D-05 0.334D-04
 Coeff-Com:  0.928D-05-0.531D-04 0.117D-04 0.819D-04 0.855D-04-0.132D-02
 Coeff-Com:  0.152D-02 0.613D-02-0.203D-01 0.658D-02 0.103D+00-0.208D+00
 Coeff-Com: -0.309D+00 0.142D+01
 Coeff:      0.155D-06-0.204D-06-0.163D-05-0.292D-05 0.905D-05 0.334D-04
 Coeff:      0.928D-05-0.531D-04 0.117D-04 0.819D-04 0.855D-04-0.132D-02
 Coeff:      0.152D-02 0.613D-02-0.203D-01 0.658D-02 0.103D+00-0.208D+00
 Coeff:     -0.309D+00 0.142D+01
 Gap=     0.408 Goal=   None    Shift=    0.000
 Gap=     0.402 Goal=   None    Shift=    0.000
 RMSDP=2.02D-08 MaxDP=4.73D-07 DE=-1.53D-12 OVMax= 1.37D-06

 Cycle  21  Pass 1  IDiag  1:
 E= -194.413192135754     Delta-E=        0.000000000000 Rises=F Damp=F
 DIIS: error= 7.90D-09 at cycle  21 NSaved=  20.
 NSaved=20 IEnMin= 6 EnMin= -194.417932690541     IErMin=20 ErrMin= 7.90D-09
 ErrMax= 7.90D-09 EMaxC= 1.00D-01 BMatC= 4.94D-14 BMatP= 3.38D-13
 IDIUse=1 WtCom= 1.00D+00 WtEn= 0.00D+00
 Coeff-Com:  0.349D-07-0.107D-05 0.172D-05 0.817D-05-0.417D-04 0.386D-04
 Coeff-Com: -0.159D-04 0.371D-04-0.537D-04 0.483D-04-0.470D-04-0.469D-03
 Coeff-Com:  0.115D-02 0.262D-02-0.133D-01 0.136D-01 0.561D-01-0.120D+00
 Coeff-Com: -0.308D+00 0.137D+01
 Coeff:      0.349D-07-0.107D-05 0.172D-05 0.817D-05-0.417D-04 0.386D-04
 Coeff:     -0.159D-04 0.371D-04-0.537D-04 0.483D-04-0.470D-04-0.469D-03
 Coeff:      0.115D-02 0.262D-02-0.133D-01 0.136D-01 0.561D-01-0.120D+00
 Coeff:     -0.308D+00 0.137D+01
 Gap=     0.408 Goal=   None    Shift=    0.000
 Gap=     0.402 Goal=   None    Shift=    0.000
 RMSDP=4.61D-09 MaxDP=6.70D-08 DE= 3.98D-13 OVMax= 2.21D-07

 SCF Done:  E(UHF) =  -194.413192136     A.U. after   21 cycles
             Convg  =    0.4611D-08             -V/T =  2.0009
 <Sx>= 0.0000 <Sy>= 0.0000 <Sz>= 0.5000 <S**2>= 0.7618 S= 0.5059
 <L.S>= 0.000000000000E+00
 KE= 1.942395827140D+02 PE=-7.866992226699D+02 EE= 2.307018015250D+02
 Annihilation of the first spin contaminant:
 S**2 before annihilation     0.7618,   after     0.7501
 Leave Link  502 at Tue May  1 13:05:07 2018, MaxMem=  671088640 cpu:     294.9
 (Enter /shared/apps/gaussian/G09_LINUX_LINDA/g09/l601.exe)
 Copying SCF densities to generalized density rwf, IOpCl= 1 IROHF=0.

 **********************************************************************

            Population analysis using the SCF density.

 **********************************************************************

 Orbital symmetries:
 Alpha Orbitals:
       Occupied  (A) (A) (A) (A) (A) (A) (A) (A) (A) (A) (A) (A)
                 (A) (A) (A) (A) (A) (A) (A) (A)
       Virtual   (A) (A) (A) (A) (A) (A) (A) (A) (A) (A) (A) (A)
                 (A) (A) (A) (A) (A) (A) (A) (A) (A) (A) (A) (A)
                 (A) (A) (A) (A) (A) (A) (A) (A) (A) (A) (A) (A)
                 (A) (A) (A) (A) (A) (A) (A) (A) (A) (A) (A) (A)
                 (A) (A) (A) (A) (A) (A) (A) (A) (A) (A) (A) (A)
                 (A) (A) (A) (A) (A) (A) (A) (A) (A) (A) (A) (A)
                 (A)
 Beta  Orbitals:
       Occupied  (A) (A) (A) (A) (A) (A) (A) (A) (A) (A) (A) (A)
                 (A) (A) (A) (A) (A) (A) (A)
       Virtual   (A) (A) (A) (A) (A) (A) (A) (A) (A) (A) (A) (A)
                 (A) (A) (A) (A) (A) (A) (A) (A) (A) (A) (A) (A)
                 (A) (A) (A) (A) (A) (A) (A) (A) (A) (A) (A) (A)
                 (A) (A) (A) (A) (A) (A) (A) (A) (A) (A) (A) (A)
                 (A) (A) (A) (A) (A) (A) (A) (A) (A) (A) (A) (A)
                 (A) (A) (A) (A) (A) (A) (A) (A) (A) (A) (A) (A)
                 (A) (A)
 The electronic state is 2-A.
 Alpha  occ. eigenvalues --  -11.25159 -11.23175 -11.22598 -11.22026 -11.21376
 Alpha  occ. eigenvalues --   -1.10751  -0.99383  -0.93019  -0.85471  -0.69597
 Alpha  occ. eigenvalues --   -0.62607  -0.59598  -0.58491  -0.55768  -0.53080
 Alpha  occ. eigenvalues --   -0.52520  -0.49772  -0.47705  -0.41576  -0.28580
 Alpha virt. eigenvalues --    0.12241   0.23724   0.26481   0.28725   0.30779
 Alpha virt. eigenvalues --    0.30984   0.31861   0.33801   0.34135   0.35322
 Alpha virt. eigenvalues --    0.41500   0.43529   0.46699   0.52248   0.69973
 Alpha virt. eigenvalues --    0.72973   0.74775   0.76690   0.77822   0.82509
 Alpha virt. eigenvalues --    0.83260   0.88906   0.91719   0.92676   0.95083
 Alpha virt. eigenvalues --    0.99783   1.02913   1.07116   1.07848   1.12213
 Alpha virt. eigenvalues --    1.14072   1.14810   1.16475   1.17666   1.19128
 Alpha virt. eigenvalues --    1.20443   1.21118   1.24769   1.26698   1.37659
 Alpha virt. eigenvalues --    1.42392   1.52142   1.67644   1.68710   1.80917
 Alpha virt. eigenvalues --    1.86436   2.01639   2.09168   2.13497   2.15887
 Alpha virt. eigenvalues --    2.21859   2.22982   2.29934   2.35126   2.41284
 Alpha virt. eigenvalues --    2.46626   2.50894   2.52184   2.56250   2.59676
 Alpha virt. eigenvalues --    2.61649   2.66441   2.74736   2.89831   2.96383
 Alpha virt. eigenvalues --    3.08806   3.22727   3.27529   4.53688   4.60521
 Alpha virt. eigenvalues --    4.69180   4.77085   4.93581
  Beta  occ. eigenvalues --  -11.23144 -11.22581 -11.22456 -11.22075 -11.21358
  Beta  occ. eigenvalues --   -1.10094  -0.95815  -0.92960  -0.82166  -0.68210
  Beta  occ. eigenvalues --   -0.61714  -0.59268  -0.57971  -0.53967  -0.52804
  Beta  occ. eigenvalues --   -0.51658  -0.49380  -0.47100  -0.28629
  Beta virt. eigenvalues --    0.11611   0.13930   0.24241   0.27139   0.29437
  Beta virt. eigenvalues --    0.31075   0.31767   0.32200   0.33946   0.35167
  Beta virt. eigenvalues --    0.35918   0.41672   0.45334   0.47645   0.53028
  Beta virt. eigenvalues --    0.71417   0.73658   0.77400   0.78135   0.80436
  Beta virt. eigenvalues --    0.83821   0.87294   0.90216   0.92209   0.93555
  Beta virt. eigenvalues --    0.97556   1.00289   1.03279   1.07684   1.08457
  Beta virt. eigenvalues --    1.13902   1.14381   1.15261   1.16531   1.17954
  Beta virt. eigenvalues --    1.19882   1.20574   1.21674   1.24926   1.27225
  Beta virt. eigenvalues --    1.38771   1.43577   1.52376   1.68366   1.69287
  Beta virt. eigenvalues --    1.83710   1.87516   2.04394   2.12551   2.13901
  Beta virt. eigenvalues --    2.18048   2.23140   2.23898   2.31975   2.37105
  Beta virt. eigenvalues --    2.41785   2.48320   2.51430   2.53697   2.56410
  Beta virt. eigenvalues --    2.60247   2.63323   2.67687   2.75585   2.90074
  Beta virt. eigenvalues --    2.96677   3.09444   3.22940   3.28122   4.56209
  Beta virt. eigenvalues --    4.60691   4.69485   4.77953   4.93612
          Condensed to atoms (all electrons):
              1          2          3          4          5          6
     1  C    5.354354   0.323397  -0.064189   0.005378  -0.008582   0.354582
     2  C    0.323397   5.182110   0.626463  -0.089605  -0.087077  -0.058357
     3  C   -0.064189   0.626463   5.037197   0.352342   0.345860   0.001209
     4  C    0.005378  -0.089605   0.352342   5.160077  -0.074443  -0.000189
     5  C   -0.008582  -0.087077   0.345860  -0.074443   5.129870   0.000935
     6  H    0.354582  -0.058357   0.001209  -0.000189   0.000935   0.590658
     7  H    0.383796  -0.050836   0.001296  -0.000128   0.000085  -0.042679
     8  H   -0.046779   0.373315  -0.047817  -0.007447   0.007839   0.006789
     9  H   -0.000246  -0.008909  -0.056034   0.374446   0.004618   0.000059
    10  H   -0.000116  -0.005564  -0.031338   0.393641   0.003505  -0.000004
    11  H   -0.000124   0.006023  -0.042110   0.391730  -0.003503   0.000002
    12  H    0.001288  -0.007356  -0.038405   0.004372   0.393064  -0.000171
    13  H    0.000064   0.008966  -0.042444  -0.000538   0.367767  -0.000177
    14  H    0.000121  -0.016250  -0.055277  -0.004350   0.406210   0.000391
              7          8          9         10         11         12
     1  C    0.383796  -0.046779  -0.000246  -0.000116  -0.000124   0.001288
     2  C   -0.050836   0.373315  -0.008909  -0.005564   0.006023  -0.007356
     3  C    0.001296  -0.047817  -0.056034  -0.031338  -0.042110  -0.038405
     4  C   -0.000128  -0.007447   0.374446   0.393641   0.391730   0.004372
     5  C    0.000085   0.007839   0.004618   0.003505  -0.003503   0.393064
     6  H   -0.042679   0.006789   0.000059  -0.000004   0.000002  -0.000171
     7  H    0.552424  -0.004692  -0.000025   0.000012   0.000003   0.000018
     8  H   -0.004692   0.531967   0.005826   0.000887   0.000079   0.000328
     9  H   -0.000025   0.005826   0.577698  -0.021700  -0.027837  -0.000172
    10  H    0.000012   0.000887  -0.021700   0.505367  -0.021949  -0.000096
    11  H    0.000003   0.000079  -0.027837  -0.021949   0.531502   0.000015
    12  H    0.000018   0.000328  -0.000172  -0.000096   0.000015   0.527343
    13  H    0.000010  -0.000304  -0.000697  -0.000091   0.001402  -0.027514
    14  H   -0.000026   0.000576   0.003851   0.000151   0.000478  -0.024466
             13         14
     1  C    0.000064   0.000121
     2  C    0.008966  -0.016250
     3  C   -0.042444  -0.055277
     4  C   -0.000538  -0.004350
     5  C    0.367767   0.406210
     6  H   -0.000177   0.000391
     7  H    0.000010  -0.000026
     8  H   -0.000304   0.000576
     9  H   -0.000697   0.003851
    10  H   -0.000091   0.000151
    11  H    0.001402   0.000478
    12  H   -0.027514  -0.024466
    13  H    0.568189  -0.031203
    14  H   -0.031203   0.548494
 Mulliken atomic charges:
              1
     1  C   -0.302943
     2  C   -0.196321
     3  C    0.013247
     4  C   -0.505286
     5  C   -0.486149
     6  H    0.146952
     7  H    0.160742
     8  H    0.179433
     9  H    0.149122
    10  H    0.177295
    11  H    0.164289
    12  H    0.171751
    13  H    0.156568
    14  H    0.171299
 Sum of Mulliken atomic charges =   0.00000
 Mulliken charges with hydrogens summed into heavy atoms:
              1
     1  C    0.004751
     2  C   -0.016888
     3  C    0.013247
     4  C   -0.014580
     5  C    0.013469
 Sum of Mulliken charges with hydrogens summed into heavy atoms =   0.00000
          Atomic-Atomic Spin Densities.
              1          2          3          4          5          6
     1  C    1.284891  -0.074529  -0.017584   0.001024  -0.001067  -0.017270
     2  C   -0.074529   0.040808   0.018099  -0.001658  -0.004293   0.003226
     3  C   -0.017584   0.018099  -0.066610  -0.001612   0.001827   0.001155
     4  C    0.001024  -0.001658  -0.001612   0.013230  -0.000867  -0.000029
     5  C   -0.001067  -0.004293   0.001827  -0.000867   0.018982   0.000395
     6  H   -0.017270   0.003226   0.001155  -0.000029   0.000395  -0.042955
     7  H   -0.013629   0.004113   0.000638  -0.000007   0.000001   0.008492
     8  H   -0.009517   0.011252  -0.001308   0.000600  -0.000094  -0.001707
     9  H    0.000001  -0.000837   0.004404  -0.000936   0.000073   0.000002
    10  H    0.000032   0.000085  -0.000440  -0.000039   0.000006  -0.000001
    11  H   -0.000013  -0.000030   0.000597  -0.000474   0.000002   0.000000
    12  H    0.000472  -0.000204   0.000524   0.000035  -0.000690  -0.000327
    13  H    0.000186   0.000313   0.000666   0.000190  -0.002723  -0.000008
    14  H   -0.000058  -0.000063   0.003745  -0.000402   0.000238  -0.000019
              7          8          9         10         11         12
     1  C   -0.013629  -0.009517   0.000001   0.000032  -0.000013   0.000472
     2  C    0.004113   0.011252  -0.000837   0.000085  -0.000030  -0.000204
     3  C    0.000638  -0.001308   0.004404  -0.000440   0.000597   0.000524
     4  C   -0.000007   0.000600  -0.000936  -0.000039  -0.000474   0.000035
     5  C    0.000001  -0.000094   0.000073   0.000006   0.000002  -0.000690
     6  H    0.008492  -0.001707   0.000002  -0.000001   0.000000  -0.000327
     7  H   -0.062269  -0.000897   0.000006  -0.000004   0.000000   0.000009
     8  H   -0.000897   0.013420  -0.001131   0.000177  -0.000004   0.000020
     9  H    0.000006  -0.001131  -0.005081   0.000107   0.000296  -0.000024
    10  H   -0.000004   0.000177   0.000107  -0.000383   0.000019   0.000001
    11  H    0.000000  -0.000004   0.000296   0.000019  -0.002065   0.000002
    12  H    0.000009   0.000020  -0.000024   0.000001   0.000002  -0.000704
    13  H   -0.000001   0.000019   0.000043  -0.000002  -0.000041   0.000405
    14  H    0.000003  -0.000218  -0.000546   0.000005   0.000037  -0.000404
             13         14
     1  C    0.000186  -0.000058
     2  C    0.000313  -0.000063
     3  C    0.000666   0.003745
     4  C    0.000190  -0.000402
     5  C   -0.002723   0.000238
     6  H   -0.000008  -0.000019
     7  H   -0.000001   0.000003
     8  H    0.000019  -0.000218
     9  H    0.000043  -0.000546
    10  H   -0.000002   0.000005
    11  H   -0.000041   0.000037
    12  H    0.000405  -0.000404
    13  H   -0.000365   0.001066
    14  H    0.001066  -0.008700
 Mulliken atomic spin densities:
              1
     1  C    1.152939
     2  C   -0.003717
     3  C   -0.055898
     4  C    0.009056
     5  C    0.011789
     6  H   -0.049046
     7  H   -0.063548
     8  H    0.010611
     9  H   -0.003624
    10  H   -0.000436
    11  H   -0.001674
    12  H   -0.000886
    13  H   -0.000253
    14  H   -0.005314
 Sum of Mulliken atomic spin densities =   1.00000
 Electronic spatial extent (au):  <R**2>=            496.1814
 Charge=              0.0000 electrons
 Dipole moment (field-independent basis, Debye):
    X=              0.0244    Y=             -0.1451    Z=              1.0727  Tot=              1.0828
 Quadrupole moment (field-independent basis, Debye-Ang):
   XX=            -32.9424   YY=            -33.1085   ZZ=            -33.7289
   XY=              0.9039   XZ=             -1.4062   YZ=             -0.1622
 Traceless Quadrupole moment (field-independent basis, Debye-Ang):
   XX=              0.3175   YY=              0.1514   ZZ=             -0.4689
   XY=              0.9039   XZ=             -1.4062   YZ=             -0.1622
 Octapole moment (field-independent basis, Debye-Ang**2):
  XXX=              0.0036  YYY=             -1.6042  ZZZ=              3.4810  XYY=             -1.1510
  XXY=             -0.9550  XXZ=              2.5123  XZZ=              1.8484  YZZ=             -0.1636
  YYZ=              0.3768  XYZ=             -0.0155
 Hexadecapole moment (field-independent basis, Debye-Ang**3):
 XXXX=           -424.7267 YYYY=           -216.8061 ZZZZ=            -63.3111 XXXY=              9.1315
 XXXZ=             -9.8237 YYYX=             -1.1597 YYYZ=              1.1212 ZZZX=             -2.1574
 ZZZY=             -1.5125 XXYY=           -105.9195 XXZZ=            -82.2275 YYZZ=            -45.4717
 XXYZ=              1.5669 YYXZ=             -2.7167 ZZXY=              1.5189
 N-N= 1.673446462952D+02 E-N=-1.174128131614D+03  KE= 2.906612907528D+02
                          Isotropic Fermi Contact Couplings
        Atom                 a.u.       MegaHertz       Gauss      10(-4) cm-1
     1  C(13)              0.47134     529.87139     189.07128     176.74607
     2  C(13)             -0.01648     -18.52668      -6.61078      -6.17983
     3  C(13)              0.00946      10.63839       3.79604       3.54858
     4  C(13)              0.00129       1.44898       0.51703       0.48333
     5  C(13)              0.00637       7.16311       2.55598       2.38936
     6  H(1)              -0.00740     -33.07615     -11.80239     -11.03301
     7  H(1)              -0.01342     -59.97277     -21.39978     -20.00476
     8  H(1)               0.00832      37.18689      13.26921      12.40421
     9  H(1)              -0.00052      -2.33616      -0.83360      -0.77926
    10  H(1)              -0.00022      -0.97444      -0.34770      -0.32504
    11  H(1)              -0.00066      -2.94395      -1.05047      -0.98200
    12  H(1)              -0.00022      -0.98975      -0.35317      -0.33015
    13  H(1)              -0.00047      -2.09701      -0.74826      -0.69949
    14  H(1)              -0.00177      -7.90650      -2.82124      -2.63733
 --------------------------------------------------------
       Center         ----  Spin Dipole Couplings  ----
                      3XX-RR        3YY-RR        3ZZ-RR
 --------------------------------------------------------
     1   Atom       -0.436120     -0.233100      0.669220
     2   Atom       -0.042425      0.016552      0.025873
     3   Atom        0.061594      0.012270     -0.073864
     4   Atom        0.005714     -0.004508     -0.001206
     5   Atom        0.004616      0.001204     -0.005820
     6   Atom       -0.030741      0.008404      0.022337
     7   Atom       -0.015456      0.033869     -0.018413
     8   Atom       -0.003596      0.000146      0.003449
     9   Atom        0.003139     -0.002562     -0.000577
    10   Atom        0.003204     -0.000909     -0.002295
    11   Atom        0.002902     -0.001507     -0.001395
    12   Atom        0.001631      0.003569     -0.005199
    13   Atom        0.003507     -0.001310     -0.002197
    14   Atom        0.002946     -0.001940     -0.001006
 --------------------------------------------------------
                        XY            XZ            YZ
 --------------------------------------------------------
     1   Atom        0.076979     -0.158514     -0.485349
     2   Atom        0.014441      0.033973      0.048211
     3   Atom        0.009824      0.023465      0.008810
     4   Atom       -0.002721      0.004034     -0.002470
     5   Atom        0.006789      0.003360      0.002280
     6   Atom       -0.036771     -0.039864      0.032185
     7   Atom        0.062844     -0.000368     -0.009155
     8   Atom       -0.004212      0.008073     -0.009931
     9   Atom       -0.001034      0.001344     -0.000022
    10   Atom       -0.002908     -0.000233      0.000296
    11   Atom        0.000050     -0.000317     -0.000288
    12   Atom        0.009493      0.004339      0.004169
    13   Atom        0.003410     -0.000525     -0.000400
    14   Atom        0.002508      0.002972      0.000836
 --------------------------------------------------------


 ---------------------------------------------------------------------------------
              Anisotropic Spin Dipole Couplings in Principal Axis System
 ---------------------------------------------------------------------------------

       Atom             a.u.   MegaHertz   Gauss  10(-4) cm-1        Axes

              Baa    -0.4622   -62.021   -22.131   -20.688  0.9179 -0.3947 -0.0407
     1 C(13)  Bbb    -0.4417   -59.266   -21.148   -19.769  0.3748  0.8288  0.4156
              Bcc     0.9038   121.288    43.279    40.457 -0.1303 -0.3967  0.9087
 
              Baa    -0.0570    -7.646    -2.728    -2.550  0.8972  0.1051 -0.4290
     2 C(13)  Bbb    -0.0227    -3.050    -1.088    -1.017 -0.3439  0.7758 -0.5291
              Bcc     0.0797    10.696     3.817     3.568  0.2772  0.6222  0.7321
 
              Baa    -0.0784   -10.516    -3.752    -3.508 -0.1595 -0.0784  0.9841
     3 C(13)  Bbb     0.0106     1.419     0.506     0.473 -0.2084  0.9771  0.0440
              Bcc     0.0678     9.098     3.246     3.035  0.9650  0.1980  0.1722
 
              Baa    -0.0059    -0.786    -0.281    -0.262  0.0649  0.9037  0.4232
     4 C(13)  Bbb    -0.0027    -0.357    -0.127    -0.119 -0.4955 -0.3389  0.7997
              Bcc     0.0085     1.143     0.408     0.381  0.8662 -0.2617  0.4258
 
              Baa    -0.0068    -0.916    -0.327    -0.306 -0.2430 -0.0693  0.9676
     5 C(13)  Bbb    -0.0041    -0.546    -0.195    -0.182 -0.5914  0.8013 -0.0911
              Bcc     0.0109     1.462     0.522     0.488  0.7689  0.5943  0.2357
 
              Baa    -0.0585   -31.202   -11.134   -10.408  0.8893  0.3437  0.3018
     6 H(1)   Bbb    -0.0173    -9.251    -3.301    -3.086 -0.0617  0.7439 -0.6654
              Bcc     0.0758    40.453    14.435    13.494 -0.4532  0.5731  0.6827
 
              Baa    -0.0589   -31.422   -11.212   -10.481  0.8163 -0.5649 -0.1203
     7 H(1)   Bbb    -0.0185    -9.848    -3.514    -3.285  0.1451 -0.0011  0.9894
              Bcc     0.0773    41.269    14.726    13.766  0.5591  0.8251 -0.0810
 
              Baa    -0.0098    -5.241    -1.870    -1.748 -0.5939  0.4278  0.6814
     8 H(1)   Bbb    -0.0061    -3.263    -1.164    -1.088  0.6882  0.7087  0.1550
              Bcc     0.0159     8.504     3.034     2.837  0.4166 -0.5610  0.7154
 
              Baa    -0.0028    -1.476    -0.527    -0.492  0.1958  0.9744 -0.1105
     9 H(1)   Bbb    -0.0010    -0.514    -0.183    -0.171 -0.2702  0.1619  0.9491
              Bcc     0.0037     1.991     0.710     0.664  0.9427 -0.1560  0.2949
 
              Baa    -0.0025    -1.348    -0.481    -0.450  0.3477  0.7322 -0.5856
    10 H(1)   Bbb    -0.0022    -1.173    -0.419    -0.391  0.3052  0.5022  0.8091
              Bcc     0.0047     2.522     0.900     0.841  0.8865 -0.4600 -0.0489
 
              Baa    -0.0017    -0.934    -0.333    -0.311  0.0361  0.7605  0.6484
    11 H(1)   Bbb    -0.0012    -0.628    -0.224    -0.209  0.0670 -0.6492  0.7577
              Bcc     0.0029     1.561     0.557     0.521  0.9971  0.0161 -0.0743
 
              Baa    -0.0074    -3.959    -1.413    -1.321 -0.6309  0.2689  0.7278
    12 H(1)   Bbb    -0.0066    -3.520    -1.256    -1.174 -0.4324  0.6570 -0.6176
              Bcc     0.0140     7.479     2.669     2.495  0.6442  0.7043  0.2982
 
              Baa    -0.0031    -1.649    -0.589    -0.550 -0.4466  0.8847  0.1333
    13 H(1)   Bbb    -0.0022    -1.194    -0.426    -0.398  0.1374 -0.0794  0.9873
              Bcc     0.0053     2.843     1.015     0.948  0.8841  0.4593 -0.0861
 
              Baa    -0.0032    -1.692    -0.604    -0.564 -0.5081  0.7608  0.4038
    14 H(1)   Bbb    -0.0023    -1.221    -0.436    -0.407 -0.1919 -0.5570  0.8081
              Bcc     0.0055     2.913     1.039     0.972  0.8397  0.3331  0.4290
 

 ---------------------------------------------------------------------------------

 No NMR shielding tensors so no spin-rotation constants.
 Leave Link  601 at Tue May  1 13:05:09 2018, MaxMem=  671088640 cpu:      14.7
 (Enter /shared/apps/gaussian/G09_LINUX_LINDA/g09/l701.exe)
 Compute integral first derivatives.
 ... and contract with generalized density number  0.
 Leave Link  701 at Tue May  1 13:05:10 2018, MaxMem=  671088640 cpu:       8.4
 (Enter /shared/apps/gaussian/G09_LINUX_LINDA/g09/l702.exe)
 L702 exits ... SP integral derivatives will be done elsewhere.
 Leave Link  702 at Tue May  1 13:05:10 2018, MaxMem=  671088640 cpu:       0.2
 (Enter /shared/apps/gaussian/G09_LINUX_LINDA/g09/l703.exe)
 Compute integral first derivatives, UseDBF=F ICtDFT=           0.
 Integral derivatives from FoFDir, PRISM(SPDF).
 Calling FoFJK, ICntrl=      2127 FMM=F ISym2X=0 I1Cent= 0 IOpClX= 1 NMat=1 NMatS=1 NMatT=0.
 FoFCou: FMM=F IPFlag=           0 FMFlag=      100000 FMFlg1=         800
         NFxFlg=           0 DoJE=F BraDBF=F KetDBF=F FulRan=T
         Omega=  0.000000  0.000000  1.000000  0.000000  0.000000 ICntrl=    2127 IOpCl=  1
         NMat0=    1 NMatS0=    1 NMatT0=    0 NMatD0=    1 NMtDS0=    0 NMtDT0=    0
         I1Cent=           0 NGrid=           0.
 Symmetry not used in FoFCou.
 Leave Link  703 at Tue May  1 13:05:11 2018, MaxMem=  671088640 cpu:       8.8
 (Enter /shared/apps/gaussian/G09_LINUX_LINDA/g09/l716.exe)
 Dipole        = 9.59142460D-03-5.71018877D-02 4.22043670D-01
 ***** Axes restored to original set *****
 -------------------------------------------------------------------
 Center     Atomic                   Forces (Hartrees/Bohr)
 Number     Number              X              Y              Z
 -------------------------------------------------------------------
      1        6           0.038292148   -0.072766490    0.039331404
      2        6           0.008617755    0.027583713   -0.013092151
      3        6           0.000489537   -0.044526199    0.033418093
      4        6          -0.016640225   -0.028485489    0.000500684
      5        6           0.005862492    0.024552787   -0.039237078
      6        1          -0.005592904    0.026261656   -0.011825669
      7        1          -0.011275472    0.012262985   -0.025062601
      8        1          -0.000596458    0.031905819    0.013022573
      9        1          -0.007729845    0.018982678    0.003829408
     10        1          -0.004486759   -0.007216313   -0.010321163
     11        1           0.007510805    0.004422087    0.009657254
     12        1          -0.019792606    0.002005679    0.008557103
     13        1           0.000713116   -0.016163777    0.003003224
     14        1           0.004628417    0.021180864   -0.011781081
 -------------------------------------------------------------------
 Cartesian Forces:  Max     0.072766490 RMS     0.022235424
 Leave Link  716 at Tue May  1 13:05:11 2018, MaxMem=  671088640 cpu:       0.5
 (Enter /shared/apps/gaussian/G09_LINUX_LINDA/g09/l103.exe)

 GradGradGradGradGradGradGradGradGradGradGradGradGradGradGradGradGradGrad
 Berny optimization.
 Internal  Forces:  Max     0.036372604 RMS     0.015635172
 Search for a local minimum.
 Step number   1 out of a maximum of   64
 All quantities printed in internal units (Hartrees-Bohrs-Radians)
 Swaping is turned off.
 Second derivative matrix not updated -- first step.
 ITU=  0
     Eigenvalues ---    0.00756   0.00764   0.00878   0.01906   0.02473
     Eigenvalues ---    0.02878   0.06183   0.06848   0.07135   0.07858
     Eigenvalues ---    0.08038   0.15999   0.16000   0.16000   0.16000
     Eigenvalues ---    0.16000   0.16000   0.16000   0.16000   0.16000
     Eigenvalues ---    0.19279   0.20718   0.22000   0.31551   0.31574
     Eigenvalues ---    0.31575   0.31696   0.32048   0.32301   0.32361
     Eigenvalues ---    0.33249   0.33286   0.33520   0.33950   0.34339
     Eigenvalues ---    0.57121
 Quadratic step=2.498D+00 exceeds max=3.000D-01 adjusted using Lamda=-2.724D-01.
 Angle between NR and scaled steps=  28.33 degrees.
 Angle between quadratic step and forces=  15.82 degrees.
 Linear search not attempted -- option 19 set.
 Iteration  1 RMS(Cart)=  0.06398425 RMS(Int)=  0.00323157
 Iteration  2 RMS(Cart)=  0.00330662 RMS(Int)=  0.00122211
 Iteration  3 RMS(Cart)=  0.00001058 RMS(Int)=  0.00122209
 Iteration  4 RMS(Cart)=  0.00000003 RMS(Int)=  0.00122209
 Variable       Old X    -DE/DX   Delta X   Delta X   Delta X     New X
                                 (Linear)    (Quad)   (Total)
    R1        2.81851   0.00408   0.00000   0.00674   0.00674   2.82525
    R2        2.11403  -0.01700   0.00000  -0.02885  -0.02885   2.08518
    R3        2.11629  -0.02187   0.00000  -0.03719  -0.03719   2.07911
    R4        2.53294   0.02256   0.00000   0.02674   0.02674   2.55968
    R5        2.06763  -0.00701   0.00000  -0.01138  -0.01138   2.05625
    R6        2.83489   0.01943   0.00000   0.03259   0.03259   2.86749
    R7        2.83596   0.02017   0.00000   0.03388   0.03388   2.86985
    R8        2.11630  -0.01655   0.00000  -0.02813  -0.02813   2.08816
    R9        2.07415  -0.01291   0.00000  -0.02110  -0.02110   2.05305
   R10        2.08147  -0.01064   0.00000  -0.01751  -0.01751   2.06396
   R11        2.10757  -0.02153   0.00000  -0.03632  -0.03632   2.07125
   R12        2.08616  -0.01053   0.00000  -0.01741  -0.01741   2.06876
   R13        2.11673  -0.02356   0.00000  -0.04007  -0.04007   2.07665
    A1        1.92579   0.03637   0.00000   0.08972   0.08665   2.01244
    A2        1.85313   0.02551   0.00000   0.06524   0.06185   1.91498
    A3        1.82347   0.00186   0.00000   0.01823   0.01226   1.83573
    A4        2.09127   0.01726   0.00000   0.03506   0.03505   2.12632
    A5        2.07171  -0.01258   0.00000  -0.02667  -0.02667   2.04504
    A6        2.12014  -0.00465   0.00000  -0.00832  -0.00832   2.11181
    A7        1.99504  -0.00350   0.00000  -0.00233  -0.00301   1.99203
    A8        1.99813   0.02273   0.00000   0.05407   0.05402   2.05215
    A9        2.00068  -0.00717   0.00000  -0.01038  -0.01112   1.98956
   A10        1.82245   0.01982   0.00000   0.04754   0.04729   1.86974
   A11        1.97007  -0.00223   0.00000  -0.00647  -0.00653   1.96354
   A12        1.94424   0.00285   0.00000   0.00604   0.00582   1.95006
   A13        1.91990  -0.00814   0.00000  -0.01811  -0.01818   1.90172
   A14        1.84338  -0.00422   0.00000  -0.00689  -0.00733   1.83605
   A15        1.95466  -0.00670   0.00000  -0.01822  -0.01828   1.93638
   A16        1.94411   0.00157   0.00000   0.00462   0.00449   1.94861
   A17        1.96060   0.01265   0.00000   0.02933   0.02919   1.98979
   A18        1.82852   0.00406   0.00000   0.00837   0.00833   1.83685
   A19        1.87602  -0.00380   0.00000  -0.00701  -0.00722   1.86881
   A20        1.89084  -0.00260   0.00000  -0.00601  -0.00604   1.88480
   A21        1.96367  -0.01226   0.00000  -0.03025  -0.03031   1.93336
    D1       -1.87046   0.01507   0.00000   0.04454   0.04687  -1.82359
    D2        1.25844   0.01696   0.00000   0.05099   0.05329   1.31173
    D3        2.44657  -0.01749   0.00000  -0.05289  -0.05518   2.39139
    D4       -0.70772  -0.01560   0.00000  -0.04643  -0.04876  -0.75648
    D5       -2.68650  -0.02210   0.00000  -0.06947  -0.06911  -2.75561
    D6        1.23896  -0.03205   0.00000  -0.11009  -0.11042   1.12854
    D7        0.46815  -0.02399   0.00000  -0.07598  -0.07565   0.39249
    D8       -1.88958  -0.03394   0.00000  -0.11660  -0.11696  -2.00655
    D9       -1.10574  -0.01014   0.00000  -0.03053  -0.03008  -1.13582
   D10        0.97924  -0.00869   0.00000  -0.02594  -0.02563   0.95360
   D11       -3.08728  -0.01720   0.00000  -0.05086  -0.05073  -3.13801
   D12        1.25083   0.01347   0.00000   0.03955   0.03941   1.29023
   D13       -2.94738   0.01492   0.00000   0.04414   0.04386  -2.90353
   D14       -0.73071   0.00640   0.00000   0.01922   0.01876  -0.71195
   D15       -0.50433   0.00674   0.00000   0.02438   0.02462  -0.47971
   D16       -2.61011   0.00168   0.00000   0.00963   0.00975  -2.60036
   D17        1.53621   0.00678   0.00000   0.02436   0.02453   1.56074
   D18       -2.85949  -0.00497   0.00000  -0.02016  -0.02027  -2.87976
   D19        1.31791  -0.01003   0.00000  -0.03491  -0.03514   1.28277
   D20       -0.81895  -0.00493   0.00000  -0.02018  -0.02036  -0.83931
         Item               Value     Threshold  Converged?
 Maximum Force            0.036373     0.000002     NO 
 RMS     Force            0.015635     0.000001     NO 
 Maximum Displacement     0.185062     0.000006     NO 
 RMS     Displacement     0.063520     0.000004     NO 
 Predicted change in Energy=-2.886879D-02
 GradGradGradGradGradGradGradGradGradGradGradGradGradGradGradGradGradGrad

 Leave Link  103 at Tue May  1 13:05:15 2018, MaxMem=  671088640 cpu:      42.2
 (Enter /shared/apps/gaussian/G09_LINUX_LINDA/g09/l202.exe)
                          Input orientation:                          
 ---------------------------------------------------------------------
 Center     Atomic      Atomic             Coordinates (Angstroms)
 Number     Number       Type             X           Y           Z
 ---------------------------------------------------------------------
      1          6           0        2.230103    0.247696   -0.556386
      2          6           0        0.947163   -0.235059    0.040448
      3          6           0       -0.244496   -0.038719   -0.572850
      4          6           0       -1.439686   -0.097878    0.360181
      5          6           0       -0.469321   -0.725254   -1.908680
      6          1           0        2.860692   -0.533528   -1.014213
      7          1           0        2.856218    0.701249    0.226393
      8          1           0        1.008121   -0.759969    0.991635
      9          1           0       -1.499089   -1.130942    0.747860
     10          1           0       -1.348089    0.588574    1.197271
     11          1           0       -2.378507    0.061656   -0.174676
     12          1           0        0.474183   -0.894304   -2.440251
     13          1           0       -1.126615   -0.173189   -2.588123
     14          1           0       -0.899673   -1.705573   -1.660902
 ---------------------------------------------------------------------
                    Distance matrix (angstroms):
                    1          2          3          4          5
     1  C    0.000000
     2  C    1.495058   0.000000
     3  C    2.491173   1.354523   0.000000
     4  C    3.798272   2.412073   1.517408   0.000000
     5  C    3.172101   2.458824   1.518657   2.546162   0.000000
     6  H    1.103430   2.205218   3.175189   4.535637   3.453378
     7  H    1.100215   2.134418   3.286452   4.371647   4.201507
     8  H    2.214723   1.088119   2.129992   2.613209   3.255130
     9  H    4.184324   2.699479   2.123965   1.105009   2.877883
    10  H    3.999371   2.699035   2.178243   1.086428   3.485012
    11  H    4.628131   3.345803   2.173160   1.092203   2.696477
    12  H    2.817156   2.610016   2.176169   3.484195   1.096059
    13  H    3.946220   3.348696   2.203983   2.965836   1.094739
    14  H    3.851066   2.909949   2.095594   2.638385   1.098918
                    6          7          8          9         10
     6  H    0.000000
     7  H    1.750371   0.000000
     8  H    2.739840   2.477139   0.000000
     9  H    4.740200   4.753688   2.546203   0.000000
    10  H    4.885040   4.316422   2.722606   1.783678   0.000000
    11  H    5.339314   5.288883   3.674861   1.745491   1.794894
    12  H    2.803422   3.915466   3.475771   3.756841   4.330262
    13  H    4.301819   4.954704   4.209047   3.490675   3.867628
    14  H    3.991521   4.843696   3.401441   2.547869   3.692336
                   11         12         13         14
    11  H    0.000000
    12  H    3.766236   0.000000
    13  H    2.728940   1.761938   0.000000
    14  H    2.742064   1.775675   1.805392   0.000000
 Stoichiometry    C5H9(2)
 Framework group  C1[X(C5H9)]
 Deg. of freedom    36
 Full point group                 C1      NOp   1
 Largest Abelian subgroup         C1      NOp   1
 Largest concise Abelian subgroup C1      NOp   1
                         Standard orientation:                         
 ---------------------------------------------------------------------
 Center     Atomic      Atomic             Coordinates (Angstroms)
 Number     Number       Type             X           Y           Z
 ---------------------------------------------------------------------
      1          6           0       -2.114924   -0.048083   -0.233334
      2          6           0       -0.781032   -0.528226    0.241422
      3          6           0        0.376005   -0.013781   -0.239562
      4          6           0        1.576976   -0.926328   -0.073870
      5          6           0        0.667699    1.448892    0.046481
      6          1           0       -2.655844    0.610629    0.467424
      7          1           0       -2.782831   -0.907321   -0.394841
      8          1           0       -0.774872   -1.309297    0.998979
      9          1           0        1.756412   -1.034333    1.011110
     10          1           0        1.413991   -1.910408   -0.504392
     11          1           0        2.487590   -0.472386   -0.470893
     12          1           0       -0.254309    2.027249    0.175903
     13          1           0        1.252886    1.947086   -0.733142
     14          1           0        1.208634    1.453942    1.003030
 ---------------------------------------------------------------------
 Rotational constants (GHZ):      7.9654828      3.7596509      2.7359157
 Leave Link  202 at Tue May  1 13:05:16 2018, MaxMem=  671088640 cpu:       3.5
 (Enter /shared/apps/gaussian/G09_LINUX_LINDA/g09/l301.exe)
 Standard basis: 6-31G(d) (6D, 7F)
 Ernie: Thresh=  0.10000D-02 Tol=  0.10000D-05 Strict=F.
 There are    93 symmetry adapted basis functions of A   symmetry.
 Integral buffers will be    131072 words long.
 Raffenetti 2 integral format.
 Two-electron integral symmetry is turned on.
    93 basis functions,   176 primitive gaussians,    93 cartesian basis functions
    20 alpha electrons       19 beta electrons
       nuclear repulsion energy       165.9920468778 Hartrees.
 IExCor=    0 DFT=F Ex=HF Corr=None ExCW=0 ScaHFX=  1.000000
 ScaDFX=  1.000000  1.000000  1.000000  1.000000 ScalE2=  1.000000  1.000000
 IRadAn=      0 IRanWt=     -1 IRanGd=            0 ICorTp=0
 NAtoms=   14 NActive=   14 NUniq=   14 SFac= 1.00D+00 NAtFMM=   50 NAOKFM=F Big=F
 Leave Link  301 at Tue May  1 13:05:17 2018, MaxMem=  671088640 cpu:       1.0
 (Enter /shared/apps/gaussian/G09_LINUX_LINDA/g09/l302.exe)
 NPDir=0 NMtPBC=     1 NCelOv=     1 NCel=       1 NClECP=     1 NCelD=      1
         NCelK=      1 NCelE2=     1 NClLst=     1 CellRange=     0.0.
 One-electron integrals computed using PRISM.
 NBasis=    93 RedAO= T  NBF=    93
 NBsUse=    93 1.00D-06 NBFU=    93
 Leave Link  302 at Tue May  1 13:05:18 2018, MaxMem=  671088640 cpu:      11.0
 (Enter /shared/apps/gaussian/G09_LINUX_LINDA/g09/l303.exe)
 DipDrv:  MaxL=1.
 Leave Link  303 at Tue May  1 13:05:18 2018, MaxMem=  671088640 cpu:       1.6
 (Enter /shared/apps/gaussian/G09_LINUX_LINDA/g09/l401.exe)
 Initial guess read from the read-write file.
 B after Tr=     0.000000    0.000000    0.000000
         Rot=    1.000000    0.000000    0.000000    0.000000 Ang=   0.00 deg.
 Guess basis will be translated and rotated to current coordinates.
 Initial guess orbital symmetries:
 Alpha Orbitals:
       Occupied  (A) (A) (A) (A) (A) (A) (A) (A) (A) (A) (A) (A)
                 (A) (A) (A) (A) (A) (A) (A) (A)
       Virtual   (A) (A) (A) (A) (A) (A) (A) (A) (A) (A) (A) (A)
                 (A) (A) (A) (A) (A) (A) (A) (A) (A) (A) (A) (A)
                 (A) (A) (A) (A) (A) (A) (A) (A) (A) (A) (A) (A)
                 (A) (A) (A) (A) (A) (A) (A) (A) (A) (A) (A) (A)
                 (A) (A) (A) (A) (A) (A) (A) (A) (A) (A) (A) (A)
                 (A) (A) (A) (A) (A) (A) (A) (A) (A) (A) (A) (A)
                 (A)
 Beta  Orbitals:
       Occupied  (A) (A) (A) (A) (A) (A) (A) (A) (A) (A) (A) (A)
                 (A) (A) (A) (A) (A) (A) (A)
       Virtual   (A) (A) (A) (A) (A) (A) (A) (A) (A) (A) (A) (A)
                 (A) (A) (A) (A) (A) (A) (A) (A) (A) (A) (A) (A)
                 (A) (A) (A) (A) (A) (A) (A) (A) (A) (A) (A) (A)
                 (A) (A) (A) (A) (A) (A) (A) (A) (A) (A) (A) (A)
                 (A) (A) (A) (A) (A) (A) (A) (A) (A) (A) (A) (A)
                 (A) (A) (A) (A) (A) (A) (A) (A) (A) (A) (A) (A)
                 (A) (A)
 The electronic state of the initial guess is 2-A.
 Initial guess <Sx>= 0.0000 <Sy>= 0.0000 <Sz>= 0.5000 <S**2>= 0.7616 S= 0.5058
 Generating alternative initial guess.
 Harris functional with IExCor=  205 diagonalized for initial guess.
 ExpMin= 1.61D-01 ExpMax= 3.05D+03 ExpMxC= 4.57D+02 IAcc=1 IRadAn=         1 AccDes= 0.00D+00
 HarFok:  IExCor=  205 AccDes= 0.00D+00 IRadAn=         1 IDoV= 1
 ScaDFX=  1.000000  1.000000  1.000000  1.000000
 FoFCou: FMM=F IPFlag=           0 FMFlag=      100000 FMFlg1=           0
         NFxFlg=           0 DoJE=T BraDBF=F KetDBF=T FulRan=T
         Omega=  0.000000  0.000000  1.000000  0.000000  0.000000 ICntrl=     500 IOpCl=  0
         NMat0=    1 NMatS0=    1 NMatT0=    0 NMatD0=    1 NMtDS0=    0 NMtDT0=    0
         I1Cent=           4 NGrid=           0.
 Petite list used in FoFCou.
 Harris En= -194.851681578906    
 Leave Link  401 at Tue May  1 13:05:21 2018, MaxMem=  671088640 cpu:      31.8
 (Enter /shared/apps/gaussian/G09_LINUX_LINDA/g09/l502.exe)
 UHF open shell SCF:
 Requested convergence on RMS density matrix=1.00D-08 within 128 cycles.
 Requested convergence on MAX density matrix=1.00D-06.
 Requested convergence on             energy=1.00D-06.
 No special actions if energy rises.
 Using DIIS extrapolation, IDIIS=  1040.
 Integral symmetry usage will be decided dynamically.
 Keep R1 and R2 ints in memory in canonical form, NReq=19976703.
 IEnd=       46670 IEndB=       46670 NGot=   671088640 MDV=   651957313
 LenX=   651957313 LenY=   651948223
 Symmetry not used in FoFDir.
 MinBra= 0 MaxBra= 2 Meth= 1.
 IRaf=       0 NMat=   1 IRICut=       1 DoRegI=T DoRafI=F ISym2E= 0 JSym2E=0.

 Cycle   1  Pass 1  IDiag  1:
 E= -194.434075733592    
 DIIS: error= 4.85D-03 at cycle   1 NSaved=   1.
 NSaved= 1 IEnMin= 1 EnMin= -194.434075733592     IErMin= 1 ErrMin= 4.85D-03
 ErrMax= 4.85D-03 EMaxC= 1.00D-01 BMatC= 1.35D-02 BMatP= 1.35D-02
 IDIUse=3 WtCom= 9.51D-01 WtEn= 4.85D-02
 Coeff-Com:  0.100D+01
 Coeff-En:   0.100D+01
 Coeff:      0.100D+01
 Gap=     0.433 Goal=   None    Shift=    0.000
 Gap=     0.435 Goal=   None    Shift=    0.000
 GapD=    0.433 DampG=2.000 DampE=1.000 DampFc=2.0000 IDamp=-1.
 RMSDP=7.35D-04 MaxDP=1.36D-02              OVMax= 2.14D-02

 Cycle   2  Pass 1  IDiag  1:
 E= -194.439707391681     Delta-E=       -0.005631658089 Rises=F Damp=F
 DIIS: error= 2.16D-03 at cycle   2 NSaved=   2.
 NSaved= 2 IEnMin= 2 EnMin= -194.439707391681     IErMin= 2 ErrMin= 2.16D-03
 ErrMax= 2.16D-03 EMaxC= 1.00D-01 BMatC= 1.34D-03 BMatP= 1.35D-02
 IDIUse=3 WtCom= 9.78D-01 WtEn= 2.16D-02
 Coeff-Com: -0.202D+00 0.120D+01
 Coeff-En:   0.000D+00 0.100D+01
 Coeff:     -0.198D+00 0.120D+01
 Gap=     0.425 Goal=   None    Shift=    0.000
 Gap=     0.417 Goal=   None    Shift=    0.000
 RMSDP=3.22D-04 MaxDP=5.73D-03 DE=-5.63D-03 OVMax= 1.29D-02

 Cycle   3  Pass 1  IDiag  1:
 E= -194.440616355835     Delta-E=       -0.000908964155 Rises=F Damp=F
 DIIS: error= 1.12D-03 at cycle   3 NSaved=   3.
 NSaved= 3 IEnMin= 3 EnMin= -194.440616355835     IErMin= 3 ErrMin= 1.12D-03
 ErrMax= 1.12D-03 EMaxC= 1.00D-01 BMatC= 2.05D-04 BMatP= 1.34D-03
 IDIUse=3 WtCom= 9.89D-01 WtEn= 1.12D-02
 Coeff-Com: -0.726D-01 0.466D-01 0.103D+01
 Coeff-En:   0.000D+00 0.000D+00 0.100D+01
 Coeff:     -0.718D-01 0.461D-01 0.103D+01
 Gap=     0.425 Goal=   None    Shift=    0.000
 Gap=     0.417 Goal=   None    Shift=    0.000
 RMSDP=1.44D-04 MaxDP=3.25D-03 DE=-9.09D-04 OVMax= 5.53D-03

 Cycle   4  Pass 1  IDiag  1:
 E= -194.440786206522     Delta-E=       -0.000169850687 Rises=F Damp=F
 DIIS: error= 6.55D-04 at cycle   4 NSaved=   4.
 NSaved= 4 IEnMin= 4 EnMin= -194.440786206522     IErMin= 4 ErrMin= 6.55D-04
 ErrMax= 6.55D-04 EMaxC= 1.00D-01 BMatC= 4.76D-05 BMatP= 2.05D-04
 IDIUse=3 WtCom= 9.93D-01 WtEn= 6.55D-03
 Coeff-Com:  0.409D-01-0.199D+00-0.156D+00 0.131D+01
[...]
 ! A2    A(2,1,7)              120.2472         -DE/DX =    0.0                 !
 ! A3    A(6,1,7)              116.7651         -DE/DX =    0.0                 !
 ! A4    A(1,2,3)              127.863          -DE/DX =    0.0                 !
 ! A5    A(1,2,8)              116.0888         -DE/DX =    0.0                 !
 ! A6    A(3,2,8)              116.0482         -DE/DX =    0.0                 !
 ! A7    A(2,3,4)              120.5015         -DE/DX =    0.0                 !
 ! A8    A(2,3,5)              124.014          -DE/DX =    0.0                 !
 ! A9    A(4,3,5)              115.4845         -DE/DX =    0.0                 !
 ! A10   A(3,4,9)              111.0858         -DE/DX =    0.0                 !
 ! A11   A(3,4,10)             111.9902         -DE/DX =    0.0                 !
 ! A12   A(3,4,11)             111.0858         -DE/DX =    0.0                 !
 ! A13   A(9,4,10)             107.875          -DE/DX =    0.0                 !
 ! A14   A(9,4,11)             106.7023         -DE/DX =    0.0                 !
 ! A15   A(10,4,11)            107.875          -DE/DX =    0.0                 !
 ! A16   A(3,5,12)             113.1762         -DE/DX =    0.0                 !
 ! A17   A(3,5,13)             110.609          -DE/DX =    0.0                 !
 ! A18   A(3,5,14)             110.609          -DE/DX =    0.0                 !
 ! A19   A(12,5,13)            107.7073         -DE/DX =    0.0                 !
 ! A20   A(12,5,14)            107.7073         -DE/DX =    0.0                 !
 ! A21   A(13,5,14)            106.7645         -DE/DX =    0.0                 !
 ! D1    D(6,1,2,3)              0.0            -DE/DX =    0.0                 !
 ! D2    D(6,1,2,8)            180.0            -DE/DX =    0.0                 !
 ! D3    D(7,1,2,3)            180.0            -DE/DX =    0.0                 !
 ! D4    D(7,1,2,8)              0.0            -DE/DX =    0.0                 !
 ! D5    D(1,2,3,4)            180.0            -DE/DX =    0.0                 !
 ! D6    D(1,2,3,5)              0.0            -DE/DX =    0.0                 !
 ! D7    D(8,2,3,4)              0.0            -DE/DX =    0.0                 !
 ! D8    D(8,2,3,5)           -180.0            -DE/DX =    0.0                 !
 ! D9    D(2,3,4,9)           -120.6964         -DE/DX =    0.0                 !
 ! D10   D(2,3,4,10)             0.0            -DE/DX =    0.0                 !
 ! D11   D(2,3,4,11)           120.6964         -DE/DX =    0.0                 !
 ! D12   D(5,3,4,9)             59.3036         -DE/DX =    0.0                 !
 ! D13   D(5,3,4,10)           180.0            -DE/DX =    0.0                 !
 ! D14   D(5,3,4,11)           -59.3036         -DE/DX =    0.0                 !
 ! D15   D(2,3,5,12)             0.0003         -DE/DX =    0.0                 !
 ! D16   D(2,3,5,13)          -120.9617         -DE/DX =    0.0                 !
 ! D17   D(2,3,5,14)           120.9622         -DE/DX =    0.0                 !
 ! D18   D(4,3,5,12)           180.0002         -DE/DX =    0.0                 !
 ! D19   D(4,3,5,13)            59.0383         -DE/DX =    0.0                 !
 ! D20   D(4,3,5,14)           -59.0379         -DE/DX =    0.0                 !
 --------------------------------------------------------------------------------
 GradGradGradGradGradGradGradGradGradGradGradGradGradGradGradGradGradGrad

 Leave Link  103 at Tue May  1 13:20:37 2018, MaxMem=  671088640 cpu:      36.3
 (Enter /shared/apps/gaussian/G09_LINUX_LINDA/g09/l9999.exe)

 Test job not archived.
 1\1\GINC-COMPUTE-3-046\Freq\UHF\6-31G(d)\C5H9(2)\ROOT\01-May-2018\0\\#
 P Geom=AllCheck Guess=TCheck SCRF=Check Test GenChk UHF/6-31G(d) Freq\
 \Gaussian input prepared by ASE\\0,2\C,2.2607310261,0.0355613171,-0.46
 06074451\C,1.0048896696,0.0306620609,0.1374315269\C,-0.2129031862,-0.3
 492694203,-0.429869889\C,-1.4840654324,-0.2885234426,0.3763732437\C,-0
 .3666723049,-0.8370314978,-1.8462802619\H,2.4255999247,-0.2702821655,-
 1.4762898474\H,3.1232396405,0.354811412,0.0945704912\H,0.9669691259,0.
 3602552612,1.1637664459\H,-1.95068805,-1.2695415287,0.446384373\H,-1.3
 085986207,0.0692057466,1.3845777943\H,-2.2127249243,0.3719188829,-0.09
 04307848\H,0.5674903516,-0.8658133195,-2.3902712125\H,-1.0521594166,-0
 .1977853125,-2.3992567228\H,-0.7901039344,-1.8394073386,-1.8623888923\
 \Version=EM64L-G09RevB.01\State=2-A\HF=-194.5430337\S2=0.963901\S2-1=0
 .\S2A=0.758449\RMSD=1.518e-09\RMSF=2.452e-09\ZeroPoint=0.1301627\Therm
 al=0.1368152\Dipole=-0.117446,-0.0291211,-0.0317172\DipoleDeriv=0.0580
 724,0.060605,0.0066472,0.0664415,-0.2532784,0.1347502,0.0244943,0.1375
 992,0.1008399,-0.0405269,0.0409773,0.0859618,0.0363907,-0.092678,0.069
 1909,0.0719365,0.0669518,0.0484947,0.1135225,0.0109058,-0.0880644,0.02
 14093,-0.1105687,0.0648792,-0.0559446,0.0700072,0.1061706,0.1231295,-0
 .0052748,0.0267637,-0.0179156,0.1954836,-0.0387044,-0.0118891,-0.04487
 49,0.0795872,0.05451,-0.0132392,0.0385456,-0.0040132,0.2000436,-0.0480
 805,0.0667546,-0.0435777,0.0505725,0.0248113,-0.0184496,0.0003241,-0.0
 045074,0.115682,-0.0753622,0.0429561,-0.0685566,-0.0895521,-0.0830975,
 -0.0479348,-0.0378483,-0.0617469,0.1130083,-0.0512935,-0.0800828,-0.05
 80357,0.0012705,0.026605,-0.008233,0.020947,-0.0121088,0.0923117,-0.08
 20883,0.0090953,-0.0839802,-0.1401426,-0.0538687,-0.0736406,0.0274864,
 -0.1204292,-0.1459223,0.0234485,0.0391296,-0.0061777,0.0503712,0.02644
 64,-0.020582,-0.0451766,-0.0017405,0.0366773,-0.0791114,0.0124366,-0.0
 699142,-0.1570254,-0.1188667,0.076162,-0.0329591,0.1181062,-0.0279993,
 0.0566386,-0.0594158,0.0839,-0.0025537,-0.0951607,0.013971,0.1204281,-
 0.0006961,0.0604897,-0.0105117,0.0755798,-0.017671,-0.0268878,-0.04921
 3,0.0807183,-0.1020307,0.0898071,-0.0346004,0.0721958,-0.1038971,0.022
 7202,-0.0361723,0.0136364,-0.0959853,-0.0210248,-0.108997,-0.148649,-0
 .035951,-0.0311534,0.0116096,0.0150273\Polar=65.8505948,5.5725421,33.8
 917604,0.1652715,5.2614593,47.2892388\PolarDeriv=-4.5541951,-0.4891234
 ,0.2255839,3.1409764,0.1335243,-1.2176325,-1.9972921,3.6870714,0.75654
 71,-1.873463,-0.7474862,1.2506341,0.6186416,-2.3699891,-0.5591035,-3.0
 743407,0.7619284,2.6780267,-0.456728,-3.1602889,-0.9308332,-9.5023731,
 -1.8341208,0.1207233,-1.6031325,-1.1502489,0.7012903,-1.4897576,0.6567
 127,-2.3397812,-5.0500768,-0.5683556,-0.4607816,0.5403617,-1.8412548,-
 3.7829446,2.8606769,2.2974628,0.0522053,3.8728724,1.2804272,0.7590024,
 1.87449,-1.7249247,-1.2989809,2.0676314,0.0026051,1.3097558,1.65148,1.
 6595578,0.3980103,1.2649772,1.2810258,1.922911,5.8076111,-0.2650939,3.
 1335322,1.3909856,-1.8105432,-1.8482595,-0.4987363,5.4667884,3.1306678
 ,-1.8749702,-0.5715397,-2.1397867,1.8353825,-1.935071,0.2294687,0.3287
 171,-2.0607238,-4.0222613,-0.0507149,0.0268023,3.183448,4.4634903,-1.0
 274637,0.0746013,-0.3729148,4.5410158,4.4031771,-1.0041281,2.0236295,-
 2.0818927,3.8742272,-0.8412952,0.4440499,1.4426538,-1.3372134,0.073840
 5,2.0315317,-0.1427561,0.0866347,-1.4163909,0.3037699,0.8303026,-0.204
 6543,0.275793,-1.0434463,0.6302871,-1.6344669,-0.8468822,-1.5302581,0.
 4098416,-0.3504905,1.9831913,-1.0772061,-5.9645251,8.0001521,1.8715302
 ,0.5174267,2.4635929,0.6688176,1.3929363,1.8492627,1.7631654,1.244738,
 0.7372177,1.0947318,0.1446201,2.9617415,0.9309766,0.4209814,2.7620938,
 0.5972143,1.6826225,-0.2613304,0.3465841,-0.0581866,1.2102391,0.003490
 1,0.0659711,0.1348396,0.1029028,1.1897805,0.0238665,1.9024799,1.591619
 1,0.6239099,0.1130608,0.7748976,0.2535282,1.9960381,7.6421844,-4.55346
 92,-3.0503173,-1.6886506,0.6784124,0.7923179,-0.0009793,-2.6630642,-3.
 8731789,-6.5381171,1.1043124,0.917994,-0.4564914,-0.3549454,0.7652987,
 0.2885238,-1.3939865,-1.7899335,1.0661093,0.7977059,0.7781724,-0.22710
 09,1.4961319,0.1435099,0.2753884,0.3908054,-0.6532692,1.1072754,-0.081
 6381,2.2627243,1.3844828,0.1309918,-0.0279266,0.5337564,-0.7831657,1.7
 719815,7.7365272,-7.3471659,2.9053462,-1.4526256,-1.1870793,0.4654321,
 0.0226693,2.5931958,-3.7011831,2.8868909,0.5755977,-0.8668404,0.735953
 7,-2.115938,0.6673472,-0.6227433,-1.783736,1.6938148,-1.4528903,4.2374
 626,-0.1427418,0.0969883,-2.1739074,0.5840926,1.9919005,0.1018318,0.98
 80771,-0.7406453,0.4484062,-1.2926696,0.2640628,-0.9697421,0.4502332,-
 0.1213245,2.5118626,-0.0429945,-3.1428363,-4.1584544,1.5802106,-1.1546
 27,-3.177964,0.6289948,-1.8624644,1.4396135,-2.5573972,2.1900015,1.212
 5509,-1.9916052,1.8856796,-1.4665146,0.8321902,-0.4096294,-2.9011714,2
 .1008398,-4.1613239,-2.3530824,-2.5557874,-1.7837951,-1.2589861,-0.332
 2487,-0.6041595,-1.0442446,-3.1646118,-7.989179,-0.475913,-1.7562692,-
 0.7019738,-0.2088996,-0.0858686,-0.5656151,-1.1509855,-2.0535165,-0.27
 54401\HyperPolar=99.2909669,31.3096736,-36.6562952,-36.4701007,-3.2001
 171,23.5658231,-4.0829181,12.3866947,21.1051448,19.4178836\PG=C01 [X(C
 5H9)]\NImag=0\\0.69332014,0.09112581,0.15017402,-0.02364601,0.18830077
 ,0.66137220,-0.26481680,-0.01393556,0.06629165,0.60925575,0.00404822,-
 0.05229879,-0.03433760,0.06681016,0.18838213,0.12128204,-0.02555910,-0
 .17907167,-0.03509441,0.18001190,0.68641490,-0.08401576,-0.01038576,0.
 01190783,-0.23510771,-0.06458073,-0.10394153,0.66178254,-0.01802487,0.
 00581172,0.00994261,-0.04485162,-0.06967401,-0.05815423,0.08730039,0.2
 1266642,-0.01145079,0.00621371,0.03002726,-0.04361441,-0.04852380,-0.1
 7058118,0.01862798,0.13960748,0.57086999,0.00045972,-0.00184416,-0.002
 92230,-0.03034571,0.00006790,0.01763892,-0.20239313,-0.00035234,0.0644
 1224,0.57125563,-0.00201135,0.00469027,-0.00310034,-0.00862179,0.00577
 129,0.00545257,0.00091155,-0.07293103,-0.01482108,0.00977394,0.5973859
 9,-0.00343356,-0.00318195,-0.00202837,-0.00893207,0.00121087,0.0134270
 7,0.06827680,-0.01420418,-0.14499091,0.03835084,0.02210700,0.63747394,
 0.00157287,0.00034541,-0.00081970,0.00408314,-0.00947065,-0.02972688,-
 0.10816770,-0.00917515,-0.00946349,0.00653674,0.01089407,0.03163855,0.
 65584179,0.00102617,-0.00186036,0.00075191,-0.00194503,-0.00070281,-0.
 00887625,-0.00867168,-0.08876614,-0.05290700,0.00064874,0.00240616,-0.
 00246600,-0.00096150,0.58604530,0.00126199,0.00108421,0.00042921,-0.00
 671512,-0.00520272,-0.01012039,-0.00792400,-0.05266119,-0.22723797,0.0
 0031056,-0.00746706,-0.01987512,-0.03492651,-0.01258134,0.56889054,-0.
 07653907,0.00568878,0.04320088,0.00618227,0.01070569,0.03045941,0.0011
 4936,0.00052610,-0.00032988,-0.00009175,-0.00001711,-0.00012848,-0.001
 27187,-0.00006997,0.00007778,0.06900593,0.00685539,-0.05484758,-0.0986
 7185,0.00064009,0.00206321,0.00135153,0.00027250,-0.00258946,0.0005781
 5,0.00006611,-0.00020528,0.00009769,-0.00014235,-0.00072327,-0.0000806
 0,-0.00722729,0.04824015,0.04676817,-0.09810239,-0.34647827,-0.0003190
 7,-0.00356184,-0.00921656,-0.00110533,0.00045437,-0.00089313,0.0001259
 8,0.00013831,0.00011366,-0.00014352,-0.00011594,-0.00095862,-0.0487789
 9,0.10715664,0.36582289,-0.26740922,-0.08073158,-0.12658952,-0.0180109
 4,-0.01013763,-0.02060945,-0.00298196,0.00025482,0.00470280,-0.0005861
 9,-0.00048692,-0.00105207,0.00013756,0.00020468,0.00064976,0.00841897,
 0.00216023,0.00378389,0.27985337,-0.08244820,-0.05485125,-0.06319776,0
 .00159603,0.00348319,-0.00013524,-0.00024889,0.00457087,-0.00136207,0.
 00000989,0.00028208,-0.00008617,0.00010974,0.00014946,-0.00016684,-0.0
 0729333,0.00023347,-0.00379405,0.08786621,0.04994105,-0.13183861,-0.06
 403571,-0.15247415,0.01526960,0.00559238,0.01291930,0.00316258,-0.0016
 0795,-0.00140448,0.00046707,0.00015634,0.00055875,0.00035947,-0.000213
 19,-0.00064083,-0.02512307,-0.00840866,-0.01080990,0.13895302,0.066700
 86,0.15023007,0.00223940,0.01082592,0.03381748,-0.07103508,-0.00055032
 ,0.01179057,0.00410686,-0.00989009,-0.03073695,0.00050372,0.00004784,-
 0.00228693,-0.00474341,-0.00203691,0.00017687,-0.00535375,-0.00127664,
 0.00264454,0.00098815,0.00066838,-0.00066086,0.07433094,-0.00053397,0.
 00363574,0.00005669,-0.00116973,-0.07410040,-0.09320209,0.00098351,-0.
 00020087,-0.01055009,0.00130564,-0.00393046,0.00104619,-0.00269024,0.0
 0731115,-0.00195085,-0.00117127,0.00726999,-0.00184712,0.00093815,-0.0
 0385596,0.00167214,0.00267337,0.06384245,-0.00091854,-0.00548847,-0.01
 263173,0.00989644,-0.09350446,-0.33418057,0.00251221,-0.00524229,-0.01
 416372,0.00155914,0.00166016,-0.00016569,-0.00182091,-0.00226976,0.002
 32702,0.00296673,-0.00179568,0.00112207,0.00016404,0.00180383,0.000883
 08,-0.01382639,0.10444258,0.35537127,-0.00138522,0.00077273,-0.0008339
 2,-0.00150748,0.00049719,0.00397277,-0.01860763,-0.02822687,0.00036522
 ,-0.10211142,-0.10780060,0.00777346,0.00076008,-0.00027478,-0.00135595
 ,-0.00006557,-0.00003034,0.00013020,-0.00034851,0.00006990,0.00010648,
 0.00016687,-0.00070589,0.00028009,0.11296700,-0.00013467,-0.00009535,0
 .00013921,0.00086659,-0.00041424,0.00064877,-0.00066007,0.00661850,-0.
 00048806,-0.10374171,-0.28346293,0.01289930,-0.00012893,0.00010302,0.0
 0001165,-0.00006994,0.00000382,0.00005742,-0.00004936,0.00003812,0.000
 01240,0.00015091,-0.00001769,0.00016555,0.11636914,0.30860720,0.000854
 39,-0.00002591,0.00063766,-0.00037073,-0.00035670,-0.00250114,0.009570
 88,0.01678787,0.00107045,0.00755179,0.01545716,-0.06163116,-0.00031460
 ,0.00077865,0.00083782,-0.00004462,0.00004053,-0.00003157,0.00017722,-
 0.00010686,-0.00006067,0.00009410,0.00006131,0.00041039,-0.01020580,-0
 .01554479,0.05729118,-0.00015901,0.00003792,0.00013302,0.00213744,0.00
 077374,0.00119488,0.00784311,0.01152341,0.03074650,-0.06878761,-0.0175
 7391,-0.04895045,-0.00610643,-0.00042109,0.00204995,0.00015977,-0.0000
 0080,-0.00006399,0.00007482,-0.00001029,-0.00006915,-0.00101790,-0.000
 31132,-0.00026434,-0.00296417,-0.00360776,-0.01443383,0.07225023,0.000
 24328,-0.00001999,0.00019935,-0.00081310,-0.00029983,0.00027994,-0.000
 25834,-0.00151030,-0.00035112,-0.01602728,-0.09063676,-0.08897093,0.00
 050915,0.00079784,-0.00004409,-0.00006841,0.00003445,0.00003573,0.0000
 3284,0.00000070,-0.00000660,-0.00005951,0.00048952,0.00033118,-0.00556
 533,-0.00955242,-0.03296176,0.01925305,0.08980697,0.00076097,0.0002996
 0,0.00042063,-0.00365731,-0.00049465,0.00001115,-0.00527944,-0.0061021
 7,-0.01743625,-0.04422119,-0.08821597,-0.30714045,0.00489445,0.0004099
 9,-0.00040447,-0.00027074,0.00000272,0.00017417,0.00006272,0.00001445,
 0.00001120,0.00050562,0.00045410,0.00153243,0.00020572,0.00027941,0.00
 487438,0.05016001,0.09885737,0.33220258,-0.00109845,-0.00142373,-0.000
 11700,-0.00138659,0.00180332,0.00374559,-0.02551149,0.01516145,-0.0135
 5754,-0.17522579,0.11492181,-0.08111051,0.00072638,-0.00035427,-0.0013
 5281,-0.00009684,0.00008503,0.00010529,-0.00033232,-0.00010530,0.00017
 379,-0.00003400,0.00073867,-0.00018919,0.01253546,-0.00912830,0.007167
 47,-0.00378862,0.00299640,-0.00277911,0.19331378,0.00027218,-0.0001379
 6,0.00016190,-0.00109773,-0.00103457,-0.00040098,-0.00028842,0.0034074
 3,-0.00110898,0.11173741,-0.15940594,0.07284379,0.00019959,-0.00013415
 ,0.00023249,0.00001462,-0.00002125,-0.00001466,0.00002129,0.00005799,-
 0.00005678,-0.00007332,0.00022020,0.00006808,0.02357030,-0.02237796,0.
 01662817,-0.01011182,0.00990987,-0.00492754,-0.12417368,0.16938156,0.0
 0060578,0.00071192,0.00039350,0.00034789,-0.00063128,-0.00200170,0.014
 28765,-0.01247024,0.01118539,-0.07821486,0.07071278,-0.11257377,-0.000
 25457,-0.00019294,0.00110871,-0.00005628,-0.00005147,0.00002477,0.0001
 2548,0.00006606,-0.00009673,0.00013380,0.00019419,0.00037336,-0.001058
 56,0.00117077,-0.00071953,-0.02223573,0.02287065,-0.01376346,0.0864647
 3,-0.08279811,0.11617002,-0.00164599,-0.00048157,-0.00071928,-0.000837
 38,0.00007945,0.00065238,0.00792789,0.00062330,-0.00277185,0.00055788,
 -0.00028969,-0.00082680,-0.28232634,0.00616635,0.12809721,-0.00210707,
 -0.00136254,-0.00274527,0.00020401,-0.00007803,-0.00036777,0.00023767,
 0.00010874,0.00019575,0.00003638,0.00006525,-0.00015609,0.00022947,-0.
 00010327,-0.00015385,0.00022623,-0.00019697,-0.00013377,0.30823866,-0.
 00030721,-0.00025044,-0.00030107,0.00015089,0.00026683,0.00073813,0.01
 261684,-0.00112099,-0.00452464,-0.00114767,-0.00027612,-0.00235971,0.0
 0476814,-0.05888688,-0.00343499,-0.00099264,0.00047697,-0.00051583,0.0
 0000333,-0.00001077,0.00015080,0.00011729,0.00002380,0.00014544,0.0003
 8745,0.00033793,-0.00023981,0.00057507,0.00045111,-0.00061743,-0.00050
 675,0.00013210,0.00022484,-0.00432424,0.05500254,-0.00018618,-0.000215
 96,-0.00067242,0.00087076,0.00077299,0.00193993,0.03390174,0.00132965,
 -0.01413775,-0.00345031,-0.00277853,-0.00613311,0.12382181,-0.00411748
 ,-0.13155471,-0.00161420,-0.00033528,0.00056690,-0.00011899,0.00019051
 ,0.00057999,0.00022191,0.00014962,0.00030670,-0.00031313,0.00021864,0.
 00028685,0.00192037,-0.00028631,-0.00125165,0.00006128,-0.00022755,0.0
 0030283,-0.13741621,0.00577026,0.13852538,-0.00025470,-0.00024048,0.00
 025233,0.00083299,0.00043862,-0.00076740,-0.00322608,-0.00044339,-0.00
 421244,0.00016131,-0.00032698,0.00049061,-0.16789837,0.10580871,-0.083
 82703,0.00027379,0.00018947,-0.00027355,-0.00002059,0.00000098,-0.0002
 4063,-0.00016472,-0.00029533,-0.00021792,0.00008097,0.00001045,0.00006
 709,0.00013156,-0.00023284,-0.00006851,0.00058039,0.00001693,-0.000044
 26,-0.01940368,0.02035641,-0.01708054,0.17802081,0.00013417,0.00010282
 ,-0.00014967,-0.00014322,-0.00072400,-0.00148845,-0.01053333,0.0105470
 9,-0.00811850,-0.00009972,0.00020598,0.00050429,0.10460738,-0.15301313
 ,0.08182405,-0.00003543,0.00008241,0.00006465,-0.00000443,-0.00000659,
 0.00002891,-0.00019209,-0.00085695,0.00007178,0.00018668,-0.00018073,0
 .00002922,-0.00028961,0.00007128,0.00013289,-0.00002794,0.00014588,0.0
 0016360,-0.00061672,0.00036624,-0.00148208,-0.11653363,0.16514075,-0.0
 0016142,0.00041017,-0.00004637,0.00331617,0.00033862,-0.00365499,-0.02
 582580,0.01646844,-0.01962812,-0.00090427,0.00065738,0.00138561,-0.085
 71557,0.08584922,-0.12688009,-0.00017949,0.00008990,0.00026281,-0.0001
 3246,0.00001376,0.00015603,-0.00069911,-0.00180283,-0.00010911,0.00015
 551,-0.00001915,-0.00009824,0.00005998,-0.00041168,0.00051088,0.001199
 45,-0.00051644,-0.00025673,0.01087200,-0.01286502,0.01121422,0.0974250
 1,-0.08936457,0.13656940,-0.00026792,0.00024626,0.00004453,0.00055610,
 -0.00048494,-0.00059689,-0.00279831,-0.00442514,-0.00271739,0.00006661
 ,0.00057913,0.00019062,-0.09914444,-0.09911943,0.00347729,0.00033583,-
 0.00022886,-0.00012835,0.00001284,-0.00013710,-0.00019192,-0.00022476,
 0.00012966,-0.00033711,0.00044324,0.00005840,0.00004273,-0.00000267,0.
 00009337,-0.00015934,0.00009185,0.00010963,0.00003269,-0.01133773,-0.0
 3169690,-0.00061830,0.01088632,0.02354790,0.00059002,0.10138304,-0.000
 24495,-0.00005286,0.00020585,0.00251402,-0.00071799,-0.00066649,-0.006
 45756,-0.00682923,-0.00364398,-0.00039674,0.00010674,0.00055981,-0.098
 86466,-0.29272620,0.00043728,0.00001021,-0.00001763,0.00004471,-0.0000
 7163,-0.00003234,0.00001505,-0.00040484,0.00016946,-0.00038793,0.00075
 042,0.00039273,-0.00054707,0.00016341,0.00045754,-0.00009276,0.0000133
 0,-0.00014321,0.00002924,0.00040993,0.00348766,0.00101152,-0.00874892,
 -0.02188104,0.00115218,0.11132802,0.31778638,0.00010178,-0.00041090,0.
 00012253,0.00271060,-0.00131369,-0.00338414,-0.01817157,-0.03414817,-0
 .00267957,-0.00070360,0.00004127,0.00157957,0.00247146,-0.00404985,-0.
 05592109,-0.00017906,0.00002638,0.00030080,-0.00011644,0.00005951,0.00
 014835,-0.00117465,0.00127615,-0.00107548,0.00077791,0.00044887,-0.000
 36642,-0.00024722,0.00045828,0.00025887,0.00018858,0.00011661,-0.00014
 666,0.00547354,0.01782903,0.00002685,0.00849726,0.01778390,0.00057470,
 0.00037141,0.00188260,0.06056169\\0.,0.,0.,0.,0.,0.,0.,0.,0.,0.,0.,0.,
 0.,0.,0.,0.,0.,0.,0.,0.,0.,0.,0.,0.,0.,0.,0.,0.,0.,0.,0.,0.,0.,0.,0.,0
 .,0.,0.,0.,0.,0.,0.\\\@


 MICRO CREDO - NEVER TRUST A COMPUTER BIGGER
               BIGGER THAN YOU CAN LIFT.
 Job cpu time:  0 days  0 hours  9 minutes 33.6 seconds.
 File lengths (MBytes):  RWF=     92 Int=      0 D2E=      0 Chk=      2 Scr=      1
 Normal termination of Gaussian 09 at Tue May  1 13:20:37 2018.
