 Entering Gaussian System, Link 0=g09
 Initial command:
 /shared/apps/gaussian/G09_LINUX_LINDA/g09/l1.exe /home/harms.n/Code/AutoTST/ipython_notebooks/Gau-27436.inp -scrdir=/home/harms.n/Code/AutoTST/ipython_notebooks/
 Entering Link 1 = /shared/apps/gaussian/G09_LINUX_LINDA/g09/l1.exe PID=     27437.
  
 Copyright (c) 1988,1990,1992,1993,1995,1998,2003,2009,2010,
            Gaussian, Inc.  All Rights Reserved.
  
 This is part of the Gaussian(R) 09 program.  It is based on
 the Gaussian(R) 03 system (copyright 2003, Gaussian, Inc.),
 the Gaussian(R) 98 system (copyright 1998, Gaussian, Inc.),
 the Gaussian(R) 94 system (copyright 1995, Gaussian, Inc.),
 the Gaussian 92(TM) system (copyright 1992, Gaussian, Inc.),
 the Gaussian 90(TM) system (copyright 1990, Gaussian, Inc.),
 the Gaussian 88(TM) system (copyright 1988, Gaussian, Inc.),
 the Gaussian 86(TM) system (copyright 1986, Carnegie Mellon
 University), and the Gaussian 82(TM) system (copyright 1983,
 Carnegie Mellon University). Gaussian is a federally registered
 trademark of Gaussian, Inc.
  
 This software contains proprietary and confidential information,
 including trade secrets, belonging to Gaussian, Inc.
  
 This software is provided under written license and may be
 used, copied, transmitted, or stored only in accord with that
 written license.
  
 The following legend is applicable only to US Government
 contracts under FAR:
  
                    RESTRICTED RIGHTS LEGEND
  
 Use, reproduction and disclosure by the US Government is
 subject to restrictions as set forth in subparagraphs (a)
 and (c) of the Commercial Computer Software - Restricted
 Rights clause in FAR 52.227-19.
  
 Gaussian, Inc.
 340 Quinnipiac St., Bldg. 40, Wallingford CT 06492
  
  
 ---------------------------------------------------------------
 Warning -- This program may not be used in any manner that
 competes with the business of Gaussian, Inc. or will provide
 assistance to any competitor of Gaussian, Inc.  The licensee
 of this program is prohibited from giving any competitor of
 Gaussian, Inc. access to this program.  By using this program,
 the user acknowledges that Gaussian, Inc. is engaged in the
 business of creating and licensing software in the field of
 computational chemistry and represents and warrants to the
 licensee that it is not a competitor of Gaussian, Inc. and that
 it will not use this program in any manner prohibited above.
 ---------------------------------------------------------------
  

 Cite this work as:
 Gaussian 09, Revision B.01,
 M. J. Frisch, G. W. Trucks, H. B. Schlegel, G. E. Scuseria, 
 M. A. Robb, J. R. Cheeseman, G. Scalmani, V. Barone, B. Mennucci, 
 G. A. Petersson, H. Nakatsuji, M. Caricato, X. Li, H. P. Hratchian, 
 A. F. Izmaylov, J. Bloino, G. Zheng, J. L. Sonnenberg, M. Hada, 
 M. Ehara, K. Toyota, R. Fukuda, J. Hasegawa, M. Ishida, T. Nakajima, 
 Y. Honda, O. Kitao, H. Nakai, T. Vreven, J. A. Montgomery, Jr., 
 J. E. Peralta, F. Ogliaro, M. Bearpark, J. J. Heyd, E. Brothers, 
 K. N. Kudin, V. N. Staroverov, T. Keith, R. Kobayashi, J. Normand, 
 K. Raghavachari, A. Rendell, J. C. Burant, S. S. Iyengar, J. Tomasi, 
 M. Cossi, N. Rega, J. M. Millam, M. Klene, J. E. Knox, J. B. Cross, 
 V. Bakken, C. Adamo, J. Jaramillo, R. Gomperts, R. E. Stratmann, 
 O. Yazyev, A. J. Austin, R. Cammi, C. Pomelli, J. W. Ochterski, 
 R. L. Martin, K. Morokuma, V. G. Zakrzewski, G. A. Voth, 
 P. Salvador, J. J. Dannenberg, S. Dapprich, A. D. Daniels, 
 O. Farkas, J. B. Foresman, J. V. Ortiz, J. Cioslowski, 
 and D. J. Fox, Gaussian, Inc., Wallingford CT, 2010.
 
 ******************************************
 Gaussian 09:  EM64L-G09RevB.01 12-Aug-2010
                 1-May-2018 
 ******************************************
 %nprocshared=20
 Will use up to   20 processors via shared memory.
 %mem=5GB
 -------------------------------------------------
 #p hf/6-31g* opt=(ts,calcfc,noeigentest,ModRedun)
 -------------------------------------------------
 1/5=1,10=4,11=1,18=120,38=1/1,3;
 2/9=110,12=2,17=6,18=5,40=1/2;
 3/5=1,6=6,7=1,11=9,16=1,25=1,30=1,71=2/1,2,3;
 4//1;
 5/5=2,38=5/2;
 8/6=4,10=90,11=11/1;
 11/6=1,8=1,9=11,15=111,16=1/1,2,10;
 10/6=1,7=6,13=1/2;
 6/7=2,8=2,9=2,10=2,28=1/1;
 7/10=1,18=20,25=1/1,2,3,16;
 1/5=1,10=4,11=1,18=20/3(2);
 2/9=110/2;
 99//99;
 2/9=110/2;
 3/5=1,6=6,7=1,11=9,16=1,25=1,30=1,71=1/1,2,3;
 4/5=5,16=3/1;
 5/5=2,38=5/2;
 7//1,2,3,16;
 1/5=1,11=1,18=20/3(-5);
 2/9=110/2;
 6/7=2,8=2,9=2,10=2,19=2,28=1/1;
 99/9=1/99;
 Leave Link    1 at Tue May  1 13:50:28 2018, MaxMem=  671088640 cpu:       1.1
 (Enter /shared/apps/gaussian/G09_LINUX_LINDA/g09/l101.exe)
 ------------------------------
 Gaussian input prepared by ASE
 ------------------------------
 Symbolic Z-matrix:
 Charge =  0 Multiplicity = 2
 O                    -3.169     0.16289  -0.71137 
 O                    -3.89016   1.2967   -0.45071 
 C                     0.22225   0.37794  -1.08873 
 C                     0.9238   -0.14793  -0.04984 
 C                    -0.91568   1.28369  -1.01307 
 C                     0.64393   0.14562   1.4018 
 C                     2.06891  -1.09687  -0.29794 
 H                    -4.29698   1.50024  -1.28479 
 H                     0.49878   0.06012  -2.08079 
 H                    -2.01661   0.57863  -0.91629 
 H                    -1.10863   1.84636  -1.91559 
 H                    -1.01468   1.89276  -0.12872 
 H                     1.50867   0.60992   1.87086 
 H                    -0.20854   0.79333   1.55072 
 H                     0.45139  -0.77911   1.94015 
 H                     2.23284  -1.26736  -1.35545 
 H                     2.9918   -0.70993   0.12848 
 H                     1.8828   -2.05897   0.17422 
 
 NAtoms=     18 NQM=     18 NQMF=      0 NMic=      0 NMicF=      0 NTot=     18.
 The following ModRedundant input section has been read:
 B       2       3 F                                                           
 B       2       4 F                                                           
 B       2       6 F                                                           
 B       2       7 F                                                           
 B       2       8 F                                                           
 B       2       9 F                                                           
 B       2      11 F                                                           
 B       2      12 F                                                           
 B       2      13 F                                                           
 B       2      14 F                                                           
 B       2      15 F                                                           
 B       2      16 F                                                           
 B       2      17 F                                                           
 B       2      18 F                                                           
 B       3       4 F                                                           
 B       3       6 F                                                           
 B       3       7 F                                                           
 B       3       8 F                                                           
 B       3       9 F                                                           
 B       3      11 F                                                           
 B       3      12 F                                                           
 B       3      13 F                                                           
 B       3      14 F                                                           
 B       3      15 F                                                           
 B       3      16 F                                                           
 B       3      17 F                                                           
 B       3      18 F                                                           
 B       4       6 F                                                           
 B       4       7 F                                                           
 B       4       8 F                                                           
 B       4       9 F                                                           
 B       4      11 F                                                           
 B       4      12 F                                                           
 B       4      13 F                                                           
 B       4      14 F                                                           
 B       4      15 F                                                           
 B       4      16 F                                                           
 B       4      17 F                                                           
 B       4      18 F                                                           
 B       6       7 F                                                           
 B       6       8 F                                                           
 B       6       9 F                                                           
 B       6      11 F                                                           
 B       6      12 F                                                           
 B       6      13 F                                                           
 B       6      14 F                                                           
 B       6      15 F                                                           
 B       6      16 F                                                           
 B       6      17 F                                                           
 B       6      18 F                                                           
 B       7       8 F                                                           
 B       7       9 F                                                           
 B       7      11 F                                                           
 B       7      12 F                                                           
 B       7      13 F                                                           
 B       7      14 F                                                           
 B       7      15 F                                                           
 B       7      16 F                                                           
 B       7      17 F                                                           
 B       7      18 F                                                           
 B       8       9 F                                                           
 B       8      11 F                                                           
 B       8      12 F                                                           
 B       8      13 F                                                           
 B       8      14 F                                                           
 B       8      15 F                                                           
 B       8      16 F                                                           
 B       8      17 F                                                           
 B       8      18 F                                                           
 B       9      11 F                                                           
 B       9      12 F                                                           
 B       9      13 F                                                           
 B       9      14 F                                                           
 B       9      15 F                                                           
 B       9      16 F                                                           
 B       9      17 F                                                           
 B       9      18 F                                                           
 B      11      12 F                                                           
 B      11      13 F                                                           
 B      11      14 F                                                           
 B      11      15 F                                                           
 B      11      16 F                                                           
 B      11      17 F                                                           
 B      11      18 F                                                           
 B      12      13 F                                                           
 B      12      14 F                                                           
 B      12      15 F                                                           
 B      12      16 F                                                           
 B      12      17 F                                                           
 B      12      18 F                                                           
 B      13      14 F                                                           
 B      13      15 F                                                           
 B      13      16 F                                                           
 B      13      17 F                                                           
 B      13      18 F                                                           
 B      14      15 F                                                           
 B      14      16 F                                                           
 B      14      17 F                                                           
 B      14      18 F                                                           
 B      15      16 F                                                           
 B      15      17 F                                                           
 B      15      18 F                                                           
 B      16      17 F                                                           
 B      16      18 F                                                           
 B      17      18 F                                                           
                    Isotopes and Nuclear Properties:
 (Nuclear quadrupole moments (NQMom) in fm**2, nuclear magnetic moments (NMagM)
  in nuclear magnetons)

  Atom         1           2           3           4           5           6           7           8           9          10
 IAtWgt=          16          16          12          12          12          12          12           1           1           1
 AtmWgt=  15.9949146  15.9949146  12.0000000  12.0000000  12.0000000  12.0000000  12.0000000   1.0078250   1.0078250   1.0078250
 NucSpn=           0           0           0           0           0           0           0           1           1           1
 AtZEff=   0.0000000   0.0000000   0.0000000   0.0000000   0.0000000   0.0000000   0.0000000   0.0000000   0.0000000   0.0000000
 NQMom=    0.0000000   0.0000000   0.0000000   0.0000000   0.0000000   0.0000000   0.0000000   0.0000000   0.0000000   0.0000000
 NMagM=    0.0000000   0.0000000   0.0000000   0.0000000   0.0000000   0.0000000   0.0000000   2.7928460   2.7928460   2.7928460

  Atom        11          12          13          14          15          16          17          18
 IAtWgt=           1           1           1           1           1           1           1           1
 AtmWgt=   1.0078250   1.0078250   1.0078250   1.0078250   1.0078250   1.0078250   1.0078250   1.0078250
 NucSpn=           1           1           1           1           1           1           1           1
 AtZEff=   0.0000000   0.0000000   0.0000000   0.0000000   0.0000000   0.0000000   0.0000000   0.0000000
 NQMom=    0.0000000   0.0000000   0.0000000   0.0000000   0.0000000   0.0000000   0.0000000   0.0000000
 NMagM=    2.7928460   2.7928460   2.7928460   2.7928460   2.7928460   2.7928460   2.7928460   2.7928460
 Leave Link  101 at Tue May  1 13:50:29 2018, MaxMem=  671088640 cpu:       1.5
 (Enter /shared/apps/gaussian/G09_LINUX_LINDA/g09/l103.exe)

 GradGradGradGradGradGradGradGradGradGradGradGradGradGradGradGradGradGrad
 Berny optimization.
 Initialization pass.
                           ----------------------------
                           !    Initial Parameters    !
                           ! (Angstroms and Degrees)  !
 --------------------------                            --------------------------
 ! Name  Definition              Value          Derivative Info.                !
 --------------------------------------------------------------------------------
 ! R1    R(1,2)                  1.3688         calculate D2E/DX2 analytically  !
 ! R2    R(1,10)                 1.2421         calculate D2E/DX2 analytically  !
 ! R3    R(2,3)                  4.2618         frozen, calculate D2E/DX2 analyt!
 ! R4    R(2,4)                  5.042          frozen, calculate D2E/DX2 analyt!
 ! R5    R(2,6)                  5.0314         frozen, calculate D2E/DX2 analyt!
 ! R6    R(2,7)                  6.4236         frozen, calculate D2E/DX2 analyt!
 ! R7    R(2,8)                  0.9501         frozen, calculate D2E/DX2 analyt!
 ! R8    R(2,9)                  4.8424         frozen, calculate D2E/DX2 analyt!
 ! R9    R(2,11)                 3.1914         frozen, calculate D2E/DX2 analyt!
 ! R10   R(2,12)                 2.9542         frozen, calculate D2E/DX2 analyt!
 ! R11   R(2,13)                 5.9168         frozen, calculate D2E/DX2 analyt!
 ! R12   R(2,14)                 4.2206         frozen, calculate D2E/DX2 analyt!
 ! R13   R(2,15)                 5.3735         frozen, calculate D2E/DX2 analyt!
 ! R14   R(2,16)                 6.6996         frozen, calculate D2E/DX2 analyt!
 ! R15   R(2,17)                 7.1919         frozen, calculate D2E/DX2 analyt!
 ! R16   R(2,18)                 6.7066         frozen, calculate D2E/DX2 analyt!
 ! R17   R(3,4)                  1.3594         frozen, calculate D2E/DX2 analyt!
 ! R18   R(3,5)                  1.4564         calculate D2E/DX2 analytically  !
 ! R19   R(3,6)                  2.5366         frozen, calculate D2E/DX2 analyt!
 ! R20   R(3,7)                  2.4921         frozen, calculate D2E/DX2 analyt!
 ! R21   R(3,8)                  4.6606         frozen, calculate D2E/DX2 analyt!
 ! R22   R(3,9)                  1.0778         frozen, calculate D2E/DX2 analyt!
 ! R23   R(3,11)                 2.1474         frozen, calculate D2E/DX2 analyt!
 ! R24   R(3,12)                 2.1786         frozen, calculate D2E/DX2 analyt!
 ! R25   R(3,13)                 3.2354         frozen, calculate D2E/DX2 analyt!
 ! R26   R(3,14)                 2.7064         frozen, calculate D2E/DX2 analyt!
 ! R27   R(3,15)                 3.2504         frozen, calculate D2E/DX2 analyt!
 ! R28   R(3,16)                 2.6116         frozen, calculate D2E/DX2 analyt!
 ! R29   R(3,17)                 3.2149         frozen, calculate D2E/DX2 analyt!
 ! R30   R(3,18)                 3.208          frozen, calculate D2E/DX2 analyt!
 ! R31   R(4,6)                  1.5072         frozen, calculate D2E/DX2 analyt!
 ! R32   R(4,7)                  1.5078         frozen, calculate D2E/DX2 analyt!
 ! R33   R(4,8)                  5.6123         frozen, calculate D2E/DX2 analyt!
 ! R34   R(4,9)                  2.0854         frozen, calculate D2E/DX2 analyt!
 ! R35   R(4,11)                 3.4043         frozen, calculate D2E/DX2 analyt!
 ! R36   R(4,12)                 2.8157         frozen, calculate D2E/DX2 analyt!
 ! R37   R(4,13)                 2.146          frozen, calculate D2E/DX2 analyt!
 ! R38   R(4,14)                 2.1748         frozen, calculate D2E/DX2 analyt!
 ! R39   R(4,15)                 2.1405         frozen, calculate D2E/DX2 analyt!
 ! R40   R(4,16)                 2.1613         frozen, calculate D2E/DX2 analyt!
 ! R41   R(4,17)                 2.1504         frozen, calculate D2E/DX2 analyt!
 ! R42   R(4,18)                 2.1499         frozen, calculate D2E/DX2 analyt!
 ! R43   R(5,10)                 1.3109         calculate D2E/DX2 analytically  !
 ! R44   R(5,11)                 1.0809         calculate D2E/DX2 analytically  !
 ! R45   R(5,12)                 1.0784         calculate D2E/DX2 analytically  !
 ! R46   R(6,7)                  2.5423         frozen, calculate D2E/DX2 analyt!
 ! R47   R(6,8)                  5.7849         frozen, calculate D2E/DX2 analyt!
 ! R48   R(6,9)                  3.4867         frozen, calculate D2E/DX2 analyt!
 ! R49   R(6,11)                 4.1193         frozen, calculate D2E/DX2 analyt!
 ! R50   R(6,12)                 2.8541         frozen, calculate D2E/DX2 analyt!
 ! R51   R(6,13)                 1.0878         frozen, calculate D2E/DX2 analyt!
 ! R52   R(6,14)                 1.0809         frozen, calculate D2E/DX2 analyt!
 ! R53   R(6,15)                 1.0872         frozen, calculate D2E/DX2 analyt!
 ! R54   R(6,16)                 3.4819         frozen, calculate D2E/DX2 analyt!
 ! R55   R(6,17)                 2.8046         frozen, calculate D2E/DX2 analyt!
 ! R56   R(6,18)                 2.811          frozen, calculate D2E/DX2 analyt!
 ! R57   R(7,8)                  6.9457         frozen, calculate D2E/DX2 analyt!
 ! R58   R(7,9)                  2.6424         frozen, calculate D2E/DX2 analyt!
 ! R59   R(7,11)                 4.6234         frozen, calculate D2E/DX2 analyt!
 ! R60   R(7,12)                 4.2983         frozen, calculate D2E/DX2 analyt!
 ! R61   R(7,13)                 2.8161         frozen, calculate D2E/DX2 analyt!
 ! R62   R(7,14)                 3.4896         frozen, calculate D2E/DX2 analyt!
 ! R63   R(7,15)                 2.7796         frozen, calculate D2E/DX2 analyt!
 ! R64   R(7,16)                 1.0836         frozen, calculate D2E/DX2 analyt!
 ! R65   R(7,17)                 1.0878         frozen, calculate D2E/DX2 analyt!
 ! R66   R(7,18)                 1.0878         frozen, calculate D2E/DX2 analyt!
 ! R67   R(8,9)                  5.0702         frozen, calculate D2E/DX2 analyt!
 ! R68   R(8,11)                 3.2685         frozen, calculate D2E/DX2 analyt!
 ! R69   R(8,12)                 3.502          frozen, calculate D2E/DX2 analyt!
 ! R70   R(8,13)                 6.6676         frozen, calculate D2E/DX2 analyt!
 ! R71   R(8,14)                 5.0254         frozen, calculate D2E/DX2 analyt!
 ! R72   R(8,15)                 6.176          frozen, calculate D2E/DX2 analyt!
 ! R73   R(8,16)                 7.0925         frozen, calculate D2E/DX2 analyt!
 ! R74   R(8,17)                 7.7465         frozen, calculate D2E/DX2 analyt!
 ! R75   R(8,18)                 7.2792         frozen, calculate D2E/DX2 analyt!
 ! R76   R(9,11)                 2.4087         frozen, calculate D2E/DX2 analyt!
 ! R77   R(9,12)                 3.0757         frozen, calculate D2E/DX2 analyt!
 ! R78   R(9,13)                 4.1155         frozen, calculate D2E/DX2 analyt!
 ! R79   R(9,14)                 3.7717         frozen, calculate D2E/DX2 analyt!
 ! R80   R(9,15)                 4.1079         frozen, calculate D2E/DX2 analyt!
 ! R81   R(9,16)                 2.3011         frozen, calculate D2E/DX2 analyt!
 ! R82   R(9,17)                 3.4189         frozen, calculate D2E/DX2 analyt!
 ! R83   R(9,18)                 3.3899         frozen, calculate D2E/DX2 analyt!
 ! R84   R(11,12)                1.7899         frozen, calculate D2E/DX2 analyt!
 ! R85   R(11,13)                4.7662         frozen, calculate D2E/DX2 analyt!
 ! R86   R(11,14)                3.7329         frozen, calculate D2E/DX2 analyt!
 ! R87   R(11,15)                4.9187         frozen, calculate D2E/DX2 analyt!
 ! R88   R(11,16)                4.6016         frozen, calculate D2E/DX2 analyt!
 ! R89   R(11,17)                5.2466         frozen, calculate D2E/DX2 analyt!
 ! R90   R(11,18)                5.3449         frozen, calculate D2E/DX2 analyt!
 ! R91   R(12,13)                3.4657         frozen, calculate D2E/DX2 analyt!
 ! R92   R(12,14)                2.1631         frozen, calculate D2E/DX2 analyt!
 ! R93   R(12,15)                3.6835         frozen, calculate D2E/DX2 analyt!
 ! R94   R(12,16)                4.6944         frozen, calculate D2E/DX2 analyt!
 ! R95   R(12,17)                4.7846         frozen, calculate D2E/DX2 analyt!
 ! R96   R(12,18)                4.9095         frozen, calculate D2E/DX2 analyt!
 ! R97   R(13,14)                1.7564         frozen, calculate D2E/DX2 analyt!
 ! R98   R(13,15)                1.747          frozen, calculate D2E/DX2 analyt!
 ! R99   R(13,16)                3.8023         frozen, calculate D2E/DX2 analyt!
 ! R100  R(13,17)                2.6415         frozen, calculate D2E/DX2 analyt!
 ! R101  R(13,18)                3.1846         frozen, calculate D2E/DX2 analyt!
 ! R102  R(14,15)                1.7492         frozen, calculate D2E/DX2 analyt!
 ! R103  R(14,16)                4.3189         frozen, calculate D2E/DX2 analyt!
 ! R104  R(14,17)                3.8111         frozen, calculate D2E/DX2 analyt!
 ! R105  R(14,18)                3.7953         frozen, calculate D2E/DX2 analyt!
 ! R106  R(15,16)                3.778          frozen, calculate D2E/DX2 analyt!
 ! R107  R(15,17)                3.121          frozen, calculate D2E/DX2 analyt!
 ! R108  R(15,18)                2.6087         frozen, calculate D2E/DX2 analyt!
 ! R109  R(16,17)                1.7575         frozen, calculate D2E/DX2 analyt!
 ! R110  R(16,18)                1.7576         frozen, calculate D2E/DX2 analyt!
 ! R111  R(17,18)                1.747          frozen, calculate D2E/DX2 analyt!
 ! A1    A(2,1,10)             104.0619         calculate D2E/DX2 analytically  !
 ! A2    A(1,2,8)              103.6435         calculate D2E/DX2 analytically  !
 ! A3    A(4,3,5)              127.1651         calculate D2E/DX2 analytically  !
 ! A4    A(4,3,9)              117.1904         calculate D2E/DX2 analytically  !
 ! A5    A(5,3,9)              115.5739         calculate D2E/DX2 analytically  !
 ! A6    A(3,4,6)              124.3928         calculate D2E/DX2 analytically  !
 ! A7    A(3,4,7)              120.641          calculate D2E/DX2 analytically  !
 ! A8    A(6,4,7)              114.9661         calculate D2E/DX2 analytically  !
 ! A9    A(3,5,10)             108.9973         calculate D2E/DX2 analytically  !
 ! A10   A(3,5,11)             114.8249         calculate D2E/DX2 analytically  !
 ! A11   A(3,5,12)             117.7497         calculate D2E/DX2 analytically  !
 ! A12   A(10,5,11)            101.0522         calculate D2E/DX2 analytically  !
 ! A13   A(10,5,12)             99.563          calculate D2E/DX2 analytically  !
 ! A14   A(11,5,12)            111.984          calculate D2E/DX2 analytically  !
 ! A15   A(4,6,13)             110.5364         calculate D2E/DX2 analytically  !
 ! A16   A(4,6,14)             113.3179         calculate D2E/DX2 analytically  !
 ! A17   A(4,6,15)             110.1289         calculate D2E/DX2 analytically  !
 ! A18   A(13,6,14)            108.1657         calculate D2E/DX2 analytically  !
 ! A19   A(13,6,15)            106.8749         calculate D2E/DX2 analytically  !
 ! A20   A(14,6,15)            107.5649         calculate D2E/DX2 analytically  !
 ! A21   A(4,7,16)             111.9928         calculate D2E/DX2 analytically  !
 ! A22   A(4,7,17)             110.8526         calculate D2E/DX2 analytically  !
 ! A23   A(4,7,18)             110.8119         calculate D2E/DX2 analytically  !
 ! A24   A(16,7,17)            108.0693         calculate D2E/DX2 analytically  !
 ! A25   A(16,7,18)            108.0797         calculate D2E/DX2 analytically  !
 ! A26   A(17,7,18)            106.8359         calculate D2E/DX2 analytically  !
 ! A27   A(1,10,5)             166.251          calculate D2E/DX2 analytically  !
 ! D1    D(10,1,2,8)            97.5231         calculate D2E/DX2 analytically  !
 ! D2    D(2,1,10,5)            12.5925         calculate D2E/DX2 analytically  !
 ! D3    D(5,3,4,6)             -1.0036         calculate D2E/DX2 analytically  !
 ! D4    D(5,3,4,7)            178.8822         calculate D2E/DX2 analytically  !
 ! D5    D(9,3,4,6)           -177.7957         calculate D2E/DX2 analytically  !
 ! D6    D(9,3,4,7)              2.0902         calculate D2E/DX2 analytically  !
 ! D7    D(4,3,5,10)           -87.8911         calculate D2E/DX2 analytically  !
 ! D8    D(4,3,5,11)           159.6113         calculate D2E/DX2 analytically  !
 ! D9    D(4,3,5,12)            24.4218         calculate D2E/DX2 analytically  !
 ! D10   D(9,3,5,10)            88.9456         calculate D2E/DX2 analytically  !
 ! D11   D(9,3,5,11)           -23.552          calculate D2E/DX2 analytically  !
 ! D12   D(9,3,5,12)          -158.7415         calculate D2E/DX2 analytically  !
 ! D13   D(3,4,6,13)          -119.1585         calculate D2E/DX2 analytically  !
 ! D14   D(3,4,6,14)             2.4428         calculate D2E/DX2 analytically  !
 ! D15   D(3,4,6,15)           122.9727         calculate D2E/DX2 analytically  !
 ! D16   D(7,4,6,13)            60.9498         calculate D2E/DX2 analytically  !
 ! D17   D(7,4,6,14)          -177.4489         calculate D2E/DX2 analytically  !
 ! D18   D(7,4,6,15)           -56.919          calculate D2E/DX2 analytically  !
 ! D19   D(3,4,7,16)             0.5731         calculate D2E/DX2 analytically  !
 ! D20   D(3,4,7,17)           121.3569         calculate D2E/DX2 analytically  !
 ! D21   D(3,4,7,18)          -120.1955         calculate D2E/DX2 analytically  !
 ! D22   D(6,4,7,16)          -179.5308         calculate D2E/DX2 analytically  !
 ! D23   D(6,4,7,17)           -58.7469         calculate D2E/DX2 analytically  !
 ! D24   D(6,4,7,18)            59.7006         calculate D2E/DX2 analytically  !
 ! D25   D(3,5,10,1)           158.5247         calculate D2E/DX2 analytically  !
 ! D26   D(11,5,10,1)          -80.1654         calculate D2E/DX2 analytically  !
 ! D27   D(12,5,10,1)           34.6505         calculate D2E/DX2 analytically  !
 --------------------------------------------------------------------------------
 Trust Radius=3.00D-01 FncErr=1.00D-07 GrdErr=1.00D-07
 Number of steps in this run=    108 maximum allowed number of steps=    108.
 Search for a saddle point of order  1.
 GradGradGradGradGradGradGradGradGradGradGradGradGradGradGradGradGradGrad

 Leave Link  103 at Tue May  1 13:50:29 2018, MaxMem=  671088640 cpu:       0.2
 (Enter /shared/apps/gaussian/G09_LINUX_LINDA/g09/l202.exe)
                          Input orientation:                          
 ---------------------------------------------------------------------
 Center     Atomic      Atomic             Coordinates (Angstroms)
 Number     Number       Type             X           Y           Z
 ---------------------------------------------------------------------
      1          8           0       -3.169004    0.162885   -0.711373
      2          8           0       -3.890156    1.296700   -0.450710
      3          6           0        0.222251    0.377939   -1.088726
      4          6           0        0.923799   -0.147929   -0.049838
      5          6           0       -0.915678    1.283694   -1.013073
      6          6           0        0.643926    0.145624    1.401801
      7          6           0        2.068908   -1.096875   -0.297937
      8          1           0       -4.296976    1.500241   -1.284791
      9          1           0        0.498782    0.060120   -2.080792
     10          1           0       -2.016605    0.578630   -0.916292
     11          1           0       -1.108625    1.846359   -1.915589
     12          1           0       -1.014681    1.892765   -0.128717
     13          1           0        1.508674    0.609915    1.870860
     14          1           0       -0.208545    0.793332    1.550719
     15          1           0        0.451394   -0.779108    1.940155
     16          1           0        2.232839   -1.267357   -1.355449
     17          1           0        2.991804   -0.709926    0.128481
     18          1           0        1.882796   -2.058973    0.174225
 ---------------------------------------------------------------------
                    Distance matrix (angstroms):
                    1          2          3          4          5
     1  O    0.000000
     2  O    1.368774   0.000000
     3  C    3.418955   4.261817   0.000000
     4  C    4.157556   5.042005   1.359410   0.000000
     5  C    2.534702   3.027201   1.456365   2.522110   0.000000
     6  C    4.359385   5.031369   2.536633   1.507234   3.091793
     7  C    5.403115   6.423627   2.492101   1.507755   3.884106
     8  H    1.841100   0.950064   4.660624   5.612314   3.399103
     9  H    3.916442   4.842424   1.077809   2.085354   2.153568
    10  H    1.242119   2.059754   2.254437   3.150334   1.310924
    11  H    2.920510   3.191380   2.147368   3.404256   1.080905
    12  H    2.823665   2.954206   2.178603   2.815733   1.078356
    13  H    5.361757   5.916818   3.235406   2.146040   3.827340
    14  H    3.778736   4.220588   2.706438   2.174846   2.704352
    15  H    4.585328   5.373479   3.250444   2.140473   3.852998
    16  H    5.624974   6.699553   2.611629   2.161325   4.066724
    17  H    6.278751   7.191897   3.214882   2.150415   4.532778
    18  H    5.589420   6.706568   3.207958   2.149876   4.518247
                    6          7          8          9         10
     6  C    0.000000
     7  C    2.542338   0.000000
     8  H    5.784918   6.945745   0.000000
     9  H    3.486665   2.642443   5.070193   0.000000
    10  H    3.555204   4.458822   2.487016   2.819944   0.000000
    11  H    4.119346   4.623434   3.268530   2.408672   1.852069
    12  H    2.854113   4.298267   3.502006   3.075671   1.830595
    13  H    1.087829   2.816145   6.667563   4.115546   4.494084
    14  H    1.080930   3.489584   5.025446   3.771708   3.066157
    15  H    1.087208   2.779637   6.175980   4.107866   4.011703
    16  H    3.481893   1.083637   7.092467   2.301146   4.653848
    17  H    2.804610   1.087795   7.746515   3.418921   5.275992
    18  H    2.811047   1.087753   7.279170   3.389860   4.832339
                   11         12         13         14         15
    11  H    0.000000
    12  H    1.789941   0.000000
    13  H    4.766156   3.465737   0.000000
    14  H    3.732867   2.163126   1.756409   0.000000
    15  H    4.918688   3.683546   1.747005   1.749213   0.000000
    16  H    4.601562   4.694425   3.802319   4.318866   3.777954
    17  H    5.246554   4.784565   2.641503   3.811138   3.120999
    18  H    5.344861   4.909519   3.184572   3.795271   2.608730
                   16         17         18
    16  H    0.000000
    17  H    1.757499   0.000000
    18  H    1.757580   1.746975   0.000000
 Stoichiometry    C5H11O2(2)
 Framework group  C1[X(C5H11O2)]
 Deg. of freedom    48
 Full point group                 C1      NOp   1
 Largest Abelian subgroup         C1      NOp   1
 Largest concise Abelian subgroup C1      NOp   1
                         Standard orientation:                         
 ---------------------------------------------------------------------
 Center     Atomic      Atomic             Coordinates (Angstroms)
 Number     Number       Type             X           Y           Z
 ---------------------------------------------------------------------
      1          8           0       -2.384995   -0.014729    0.874985
      2          8           0       -3.355444    0.378060   -0.006767
      3          6           0        0.697416   -0.905682   -0.305776
      4          6           0        1.672395    0.001211   -0.031991
      5          6           0       -0.628825   -0.636255   -0.843819
      6          6           0        1.545822    1.484557   -0.267407
      7          6           0        2.991470   -0.440587    0.549543
      8          1           0       -3.926953   -0.378814   -0.062808
      9          1           0        0.898495   -1.935055   -0.057519
     10          1           0       -1.448883   -0.385949    0.147833
     11          1           0       -1.113193   -1.486057   -1.303798
     12          1           0       -0.763403    0.265552   -1.419566
     13          1           0        2.299712    1.824480   -0.974142
     14          1           0        0.575408    1.776858   -0.643260
     15          1           0        1.715363    2.026349    0.659814
     16          1           0        3.033343   -1.514115    0.691151
     17          1           0        3.816196   -0.153396   -0.099030
     18          1           0        3.167761    0.034035    1.512280
 ---------------------------------------------------------------------
 Rotational constants (GHZ):      5.0673904      0.9214906      0.8729873
 Leave Link  202 at Tue May  1 13:50:29 2018, MaxMem=  671088640 cpu:       0.8
 (Enter /shared/apps/gaussian/G09_LINUX_LINDA/g09/l301.exe)
 Standard basis: 6-31G(d) (6D, 7F)
 Ernie: Thresh=  0.10000D-02 Tol=  0.10000D-05 Strict=F.
 There are   127 symmetry adapted basis functions of A   symmetry.
 Integral buffers will be    131072 words long.
 Raffenetti 2 integral format.
 Two-electron integral symmetry is turned on.
   127 basis functions,   240 primitive gaussians,   127 cartesian basis functions
    29 alpha electrons       28 beta electrons
       nuclear repulsion energy       295.0942928532 Hartrees.
 IExCor=    0 DFT=F Ex=HF Corr=None ExCW=0 ScaHFX=  1.000000
 ScaDFX=  1.000000  1.000000  1.000000  1.000000 ScalE2=  1.000000  1.000000
 IRadAn=      0 IRanWt=     -1 IRanGd=            0 ICorTp=0
 NAtoms=   18 NActive=   18 NUniq=   18 SFac= 1.00D+00 NAtFMM=   50 NAOKFM=F Big=F
 Leave Link  301 at Tue May  1 13:50:29 2018, MaxMem=  671088640 cpu:       1.0
 (Enter /shared/apps/gaussian/G09_LINUX_LINDA/g09/l302.exe)
 NPDir=0 NMtPBC=     1 NCelOv=     1 NCel=       1 NClECP=     1 NCelD=      1
         NCelK=      1 NCelE2=     1 NClLst=     1 CellRange=     0.0.
 One-electron integrals computed using PRISM.
 NBasis=   127 RedAO= T  NBF=   127
 NBsUse=   127 1.00D-06 NBFU=   127
 Leave Link  302 at Tue May  1 13:50:30 2018, MaxMem=  671088640 cpu:       7.6
 (Enter /shared/apps/gaussian/G09_LINUX_LINDA/g09/l303.exe)
 DipDrv:  MaxL=1.
 Leave Link  303 at Tue May  1 13:50:30 2018, MaxMem=  671088640 cpu:       1.4
 (Enter /shared/apps/gaussian/G09_LINUX_LINDA/g09/l401.exe)
 Harris functional with IExCor=  205 diagonalized for initial guess.
 ExpMin= 1.61D-01 ExpMax= 5.48D+03 ExpMxC= 8.25D+02 IAcc=1 IRadAn=         1 AccDes= 0.00D+00
 HarFok:  IExCor=  205 AccDes= 0.00D+00 IRadAn=         1 IDoV= 1
 ScaDFX=  1.000000  1.000000  1.000000  1.000000
 FoFCou: FMM=F IPFlag=           0 FMFlag=      100000 FMFlg1=           0
         NFxFlg=           0 DoJE=T BraDBF=F KetDBF=T FulRan=T
         Omega=  0.000000  0.000000  1.000000  0.000000  0.000000 ICntrl=     500 IOpCl=  0
         NMat0=    1 NMatS0=    1 NMatT0=    0 NMatD0=    1 NMtDS0=    0 NMtDT0=    0
         I1Cent=           4 NGrid=           0.
 Petite list used in FoFCou.
 Harris En= -345.810755287305    
 Initial guess orbital symmetries:
 Alpha Orbitals:
       Occupied  (A) (A) (A) (A) (A) (A) (A) (A) (A) (A) (A) (A)
                 (A) (A) (A) (A) (A) (A) (A) (A) (A) (A) (A) (A)
                 (A) (A) (A) (A) (A)
       Virtual   (A) (A) (A) (A) (A) (A) (A) (A) (A) (A) (A) (A)
                 (A) (A) (A) (A) (A) (A) (A) (A) (A) (A) (A) (A)
                 (A) (A) (A) (A) (A) (A) (A) (A) (A) (A) (A) (A)
                 (A) (A) (A) (A) (A) (A) (A) (A) (A) (A) (A) (A)
                 (A) (A) (A) (A) (A) (A) (A) (A) (A) (A) (A) (A)
                 (A) (A) (A) (A) (A) (A) (A) (A) (A) (A) (A) (A)
                 (A) (A) (A) (A) (A) (A) (A) (A) (A) (A) (A) (A)
                 (A) (A) (A) (A) (A) (A) (A) (A) (A) (A) (A) (A)
                 (A) (A)
 Beta  Orbitals:
       Occupied  (A) (A) (A) (A) (A) (A) (A) (A) (A) (A) (A) (A)
                 (A) (A) (A) (A) (A) (A) (A) (A) (A) (A) (A) (A)
                 (A) (A) (A) (A)
       Virtual   (A) (A) (A) (A) (A) (A) (A) (A) (A) (A) (A) (A)
                 (A) (A) (A) (A) (A) (A) (A) (A) (A) (A) (A) (A)
                 (A) (A) (A) (A) (A) (A) (A) (A) (A) (A) (A) (A)
                 (A) (A) (A) (A) (A) (A) (A) (A) (A) (A) (A) (A)
                 (A) (A) (A) (A) (A) (A) (A) (A) (A) (A) (A) (A)
                 (A) (A) (A) (A) (A) (A) (A) (A) (A) (A) (A) (A)
                 (A) (A) (A) (A) (A) (A) (A) (A) (A) (A) (A) (A)
                 (A) (A) (A) (A) (A) (A) (A) (A) (A) (A) (A) (A)
                 (A) (A) (A)
 The electronic state of the initial guess is 2-A.
 Initial guess <Sx>= 0.0000 <Sy>= 0.0000 <Sz>= 0.5000 <S**2>= 0.7500 S= 0.5000
 Leave Link  401 at Tue May  1 13:50:34 2018, MaxMem=  671088640 cpu:      31.5
 (Enter /shared/apps/gaussian/G09_LINUX_LINDA/g09/l502.exe)
 UHF open shell SCF:
 Requested convergence on RMS density matrix=1.00D-08 within 128 cycles.
 Requested convergence on MAX density matrix=1.00D-06.
 Requested convergence on             energy=1.00D-06.
 No special actions if energy rises.
 Using DIIS extrapolation, IDIIS=  1040.
 Integral symmetry usage will be decided dynamically.
 Keep R1 and R2 ints in memory in canonical form, NReq=67191093.
 IEnd=       70048 IEndB=       70048 NGot=   671088640 MDV=   604978949
 LenX=   604978949 LenY=   604962379
 Symmetry not used in FoFDir.
 MinBra= 0 MaxBra= 2 Meth= 1.
 IRaf=       0 NMat=   1 IRICut=       1 DoRegI=T DoRafI=F ISym2E= 0 JSym2E=0.

 Cycle   1  Pass 1  IDiag  1:
 E= -344.868294898395    
 DIIS: error= 4.25D-02 at cycle   1 NSaved=   1.
 NSaved= 1 IEnMin= 1 EnMin= -344.868294898395     IErMin= 1 ErrMin= 4.25D-02
 ErrMax= 4.25D-02 EMaxC= 1.00D-01 BMatC= 2.00D+00 BMatP= 2.00D+00
 IDIUse=3 WtCom= 5.75D-01 WtEn= 4.25D-01
 Coeff-Com:  0.100D+01
 Coeff-En:   0.100D+01
 Coeff:      0.100D+01
 Gap=     0.600 Goal=   None    Shift=    0.000
 Gap=     0.526 Goal=   None    Shift=    0.000
 GapD=    0.526 DampG=2.000 DampE=0.500 DampFc=1.0000 IDamp=-1.
 RMSDP=5.75D-03 MaxDP=1.13D-01              OVMax= 1.88D-01

 Cycle   2  Pass 1  IDiag  1:
 E= -345.185437320347     Delta-E=       -0.317142421952 Rises=F Damp=F
 DIIS: error= 1.73D-02 at cycle   2 NSaved=   2.
 NSaved= 2 IEnMin= 2 EnMin= -345.185437320347     IErMin= 2 ErrMin= 1.73D-02
 ErrMax= 1.73D-02 EMaxC= 1.00D-01 BMatC= 2.25D-01 BMatP= 2.00D+00
 IDIUse=3 WtCom= 8.27D-01 WtEn= 1.73D-01
 Coeff-Com:  0.177D+00 0.823D+00
 Coeff-En:   0.000D+00 0.100D+01
 Coeff:      0.146D+00 0.854D+00
 Gap=     0.578 Goal=   None    Shift=    0.000
 Gap=     0.346 Goal=   None    Shift=    0.000
 RMSDP=2.63D-03 MaxDP=4.52D-02 DE=-3.17D-01 OVMax= 9.23D-02

 Cycle   3  Pass 1  IDiag  1:
 E= -345.241468488370     Delta-E=       -0.056031168022 Rises=F Damp=F
 DIIS: error= 5.81D-03 at cycle   3 NSaved=   3.
 NSaved= 3 IEnMin= 3 EnMin= -345.241468488370     IErMin= 3 ErrMin= 5.81D-03
 ErrMax= 5.81D-03 EMaxC= 1.00D-01 BMatC= 1.95D-02 BMatP= 2.25D-01
 IDIUse=3 WtCom= 9.42D-01 WtEn= 5.81D-02
 Coeff-Com: -0.204D-01 0.148D+00 0.872D+00
 Coeff-En:   0.000D+00 0.000D+00 0.100D+01
 Coeff:     -0.192D-01 0.139D+00 0.880D+00
 Gap=     0.500 Goal=   None    Shift=    0.000
 Gap=     0.353 Goal=   None    Shift=    0.000
 RMSDP=6.84D-04 MaxDP=1.39D-02 DE=-5.60D-02 OVMax= 4.92D-02

 Cycle   4  Pass 1  IDiag  1:
 E= -345.249912170625     Delta-E=       -0.008443682256 Rises=F Damp=F
 DIIS: error= 3.05D-03 at cycle   4 NSaved=   4.
 NSaved= 4 IEnMin= 4 EnMin= -345.249912170625     IErMin= 4 ErrMin= 3.05D-03
 ErrMax= 3.05D-03 EMaxC= 1.00D-01 BMatC= 3.81D-03 BMatP= 1.95D-02
 IDIUse=3 WtCom= 9.69D-01 WtEn= 3.05D-02
 Coeff-Com: -0.755D-02-0.188D-01 0.910D-01 0.935D+00
 Coeff-En:   0.000D+00 0.000D+00 0.000D+00 0.100D+01
 Coeff:     -0.731D-02-0.182D-01 0.882D-01 0.937D+00
 Gap=     0.498 Goal=   None    Shift=    0.000
 Gap=     0.371 Goal=   None    Shift=    0.000
 RMSDP=3.70D-04 MaxDP=1.09D-02 DE=-8.44D-03 OVMax= 2.78D-02

 Cycle   5  Pass 1  IDiag  1:
 E= -345.252880482932     Delta-E=       -0.002968312306 Rises=F Damp=F
 DIIS: error= 1.77D-03 at cycle   5 NSaved=   5.
 NSaved= 5 IEnMin= 5 EnMin= -345.252880482932     IErMin= 5 ErrMin= 1.77D-03
 ErrMax= 1.77D-03 EMaxC= 1.00D-01 BMatC= 1.84D-03 BMatP= 3.81D-03
 IDIUse=3 WtCom= 9.82D-01 WtEn= 1.77D-02
 Coeff-Com:  0.118D-01-0.612D-01-0.415D+00-0.159D+00 0.162D+01
 Coeff-En:   0.000D+00 0.000D+00 0.000D+00 0.000D+00 0.100D+01
 Coeff:      0.116D-01-0.602D-01-0.407D+00-0.156D+00 0.161D+01
 Gap=     0.508 Goal=   None    Shift=    0.000
 Gap=     0.399 Goal=   None    Shift=    0.000
 RMSDP=5.58D-04 MaxDP=1.69D-02 DE=-2.97D-03 OVMax= 3.99D-02

 Cycle   6  Pass 1  IDiag  1:
 E= -345.255557366730     Delta-E=       -0.002676883798 Rises=F Damp=F
 DIIS: error= 1.13D-03 at cycle   6 NSaved=   6.
 NSaved= 6 IEnMin= 6 EnMin= -345.255557366730     IErMin= 6 ErrMin= 1.13D-03
 ErrMax= 1.13D-03 EMaxC= 1.00D-01 BMatC= 4.89D-04 BMatP= 1.84D-03
 IDIUse=3 WtCom= 9.89D-01 WtEn= 1.13D-02
 Coeff-Com:  0.261D-02 0.214D-02-0.434D-01-0.143D+00 0.163D+00 0.102D+01
 Coeff-En:   0.000D+00 0.000D+00 0.000D+00 0.000D+00 0.000D+00 0.100D+01
 Coeff:      0.258D-02 0.212D-02-0.429D-01-0.142D+00 0.161D+00 0.102D+01
 Gap=     0.510 Goal=   None    Shift=    0.000
 Gap=     0.406 Goal=   None    Shift=    0.000
 RMSDP=1.92D-04 MaxDP=6.79D-03 DE=-2.68D-03 OVMax= 1.53D-02

 Cycle   7  Pass 1  IDiag  1:
 E= -345.256155700522     Delta-E=       -0.000598333792 Rises=F Damp=F
 DIIS: error= 9.92D-04 at cycle   7 NSaved=   7.
 NSaved= 7 IEnMin= 7 EnMin= -345.256155700522     IErMin= 7 ErrMin= 9.92D-04
 ErrMax= 9.92D-04 EMaxC= 1.00D-01 BMatC= 2.85D-04 BMatP= 4.89D-04
 IDIUse=3 WtCom= 9.90D-01 WtEn= 9.92D-03
 Coeff-Com: -0.385D-02 0.240D-01 0.142D+00 0.479D-01-0.594D+00 0.116D+00
 Coeff-Com:  0.127D+01
 Coeff-En:   0.000D+00 0.000D+00 0.000D+00 0.000D+00 0.000D+00 0.000D+00
 Coeff-En:   0.100D+01
 Coeff:     -0.381D-02 0.237D-01 0.141D+00 0.474D-01-0.588D+00 0.115D+00
 Coeff:      0.126D+01
 Gap=     0.513 Goal=   None    Shift=    0.000
 Gap=     0.410 Goal=   None    Shift=    0.000
 RMSDP=2.16D-04 MaxDP=8.49D-03 DE=-5.98D-04 OVMax= 1.99D-02

 Cycle   8  Pass 1  IDiag  1:
 E= -345.256708166131     Delta-E=       -0.000552465609 Rises=F Damp=F
 DIIS: error= 7.95D-04 at cycle   8 NSaved=   8.
 NSaved= 8 IEnMin= 8 EnMin= -345.256708166131     IErMin= 8 ErrMin= 7.95D-04
 ErrMax= 7.95D-04 EMaxC= 1.00D-01 BMatC= 1.59D-04 BMatP= 2.85D-04
 IDIUse=3 WtCom= 9.92D-01 WtEn= 7.95D-03
 Coeff-Com:  0.314D-02-0.285D-01-0.140D+00 0.446D-01 0.508D+00-0.684D+00
 Coeff-Com: -0.146D+01 0.276D+01
 Coeff-En:   0.000D+00 0.000D+00 0.000D+00 0.000D+00 0.000D+00 0.000D+00
 Coeff-En:   0.000D+00 0.100D+01
 Coeff:      0.312D-02-0.282D-01-0.139D+00 0.443D-01 0.504D+00-0.678D+00
 Coeff:     -0.145D+01 0.274D+01
 Gap=     0.520 Goal=   None    Shift=    0.000
 Gap=     0.418 Goal=   None    Shift=    0.000
 RMSDP=3.87D-04 MaxDP=1.59D-02 DE=-5.52D-04 OVMax= 3.67D-02

 Cycle   9  Pass 1  IDiag  1:
 E= -345.257349500382     Delta-E=       -0.000641334251 Rises=F Damp=F
 DIIS: error= 4.21D-04 at cycle   9 NSaved=   9.
 NSaved= 9 IEnMin= 9 EnMin= -345.257349500382     IErMin= 9 ErrMin= 4.21D-04
 ErrMax= 4.21D-04 EMaxC= 1.00D-01 BMatC= 4.11D-05 BMatP= 1.59D-04
 IDIUse=3 WtCom= 9.96D-01 WtEn= 4.21D-03
 Coeff-Com:  0.106D-02-0.276D-02-0.276D-01-0.529D-01 0.188D+00 0.142D+00
 Coeff-Com: -0.676D-01-0.934D+00 0.175D+01
 Coeff-En:   0.000D+00 0.000D+00 0.000D+00 0.000D+00 0.000D+00 0.000D+00
 Coeff-En:   0.000D+00 0.000D+00 0.100D+01
 Coeff:      0.106D-02-0.275D-02-0.275D-01-0.527D-01 0.187D+00 0.141D+00
 Coeff:     -0.673D-01-0.930D+00 0.175D+01
 Gap=     0.525 Goal=   None    Shift=    0.000
 Gap=     0.420 Goal=   None    Shift=    0.000
 RMSDP=2.09D-04 MaxDP=8.80D-03 DE=-6.41D-04 OVMax= 1.96D-02

 Cycle  10  Pass 1  IDiag  1:
 E= -345.257490775152     Delta-E=       -0.000141274769 Rises=F Damp=F
 DIIS: error= 1.47D-04 at cycle  10 NSaved=  10.
 NSaved=10 IEnMin=10 EnMin= -345.257490775152     IErMin=10 ErrMin= 1.47D-04
 ErrMax= 1.47D-04 EMaxC= 1.00D-01 BMatC= 6.52D-06 BMatP= 4.11D-05
 IDIUse=3 WtCom= 9.99D-01 WtEn= 1.47D-03
 Coeff-Com: -0.549D-03 0.474D-02 0.257D-01-0.182D-01-0.766D-01 0.114D+00
 Coeff-Com:  0.235D+00-0.365D+00-0.160D+00 0.124D+01
 Coeff-En:   0.000D+00 0.000D+00 0.000D+00 0.000D+00 0.000D+00 0.000D+00
 Coeff-En:   0.000D+00 0.000D+00 0.000D+00 0.100D+01
 Coeff:     -0.548D-03 0.473D-02 0.257D-01-0.181D-01-0.765D-01 0.114D+00
 Coeff:      0.234D+00-0.365D+00-0.159D+00 0.124D+01
 Gap=     0.526 Goal=   None    Shift=    0.000
 Gap=     0.420 Goal=   None    Shift=    0.000
 RMSDP=3.89D-05 MaxDP=1.45D-03 DE=-1.41D-04 OVMax= 3.74D-03

 Cycle  11  Pass 1  IDiag  1:
 E= -345.257501846611     Delta-E=       -0.000011071459 Rises=F Damp=F
 DIIS: error= 9.62D-05 at cycle  11 NSaved=  11.
 NSaved=11 IEnMin=11 EnMin= -345.257501846611     IErMin=11 ErrMin= 9.62D-05
 ErrMax= 9.62D-05 EMaxC= 1.00D-01 BMatC= 2.16D-06 BMatP= 6.52D-06
 IDIUse=1 WtCom= 1.00D+00 WtEn= 0.00D+00
 Coeff-Com: -0.225D-03 0.650D-03 0.762D-02 0.292D-02-0.319D-01-0.213D-01
 Coeff-Com: -0.123D-01 0.202D+00-0.344D+00-0.167D+00 0.136D+01
 Coeff:     -0.225D-03 0.650D-03 0.762D-02 0.292D-02-0.319D-01-0.213D-01
 Coeff:     -0.123D-01 0.202D+00-0.344D+00-0.167D+00 0.136D+01
 Gap=     0.526 Goal=   None    Shift=    0.000
 Gap=     0.420 Goal=   None    Shift=    0.000
 RMSDP=2.52D-05 MaxDP=8.58D-04 DE=-1.11D-05 OVMax= 2.49D-03

 Cycle  12  Pass 1  IDiag  1:
 E= -345.257505986902     Delta-E=       -0.000004140292 Rises=F Damp=F
 DIIS: error= 5.48D-05 at cycle  12 NSaved=  12.
 NSaved=12 IEnMin=12 EnMin= -345.257505986902     IErMin=12 ErrMin= 5.48D-05
 ErrMax= 5.48D-05 EMaxC= 1.00D-01 BMatC= 7.66D-07 BMatP= 2.16D-06
 IDIUse=1 WtCom= 1.00D+00 WtEn= 0.00D+00
 Coeff-Com:  0.232D-03-0.140D-02-0.857D-02-0.540D-02 0.444D-01-0.189D-01
 Coeff-Com: -0.583D-01-0.579D-02 0.211D+00-0.278D+00-0.623D+00 0.174D+01
 Coeff:      0.232D-03-0.140D-02-0.857D-02-0.540D-02 0.444D-01-0.189D-01
 Coeff:     -0.583D-01-0.579D-02 0.211D+00-0.278D+00-0.623D+00 0.174D+01
 Gap=     0.526 Goal=   None    Shift=    0.000
 Gap=     0.420 Goal=   None    Shift=    0.000
 RMSDP=1.73D-05 MaxDP=3.85D-04 DE=-4.14D-06 OVMax= 1.74D-03

 Cycle  13  Pass 1  IDiag  1:
 E= -345.257507562760     Delta-E=       -0.000001575857 Rises=F Damp=F
 DIIS: error= 2.63D-05 at cycle  13 NSaved=  13.
 NSaved=13 IEnMin=13 EnMin= -345.257507562760     IErMin=13 ErrMin= 2.63D-05
 ErrMax= 2.63D-05 EMaxC= 1.00D-01 BMatC= 2.28D-07 BMatP= 7.66D-07
 IDIUse=1 WtCom= 1.00D+00 WtEn= 0.00D+00
 Coeff-Com:  0.193D-04 0.661D-04-0.160D-03-0.274D-02 0.767D-02 0.513D-02
 Coeff-Com:  0.191D-01-0.606D-01 0.699D-01 0.109D+00-0.307D+00-0.297D+00
 Coeff-Com:  0.146D+01
 Coeff:      0.193D-04 0.661D-04-0.160D-03-0.274D-02 0.767D-02 0.513D-02
 Coeff:      0.191D-01-0.606D-01 0.699D-01 0.109D+00-0.307D+00-0.297D+00
 Coeff:      0.146D+01
 Gap=     0.526 Goal=   None    Shift=    0.000
 Gap=     0.420 Goal=   None    Shift=    0.000
 RMSDP=8.80D-06 MaxDP=3.03D-04 DE=-1.58D-06 OVMax= 7.68D-04

 Cycle  14  Pass 1  IDiag  1:
 E= -345.257507982759     Delta-E=       -0.000000419999 Rises=F Damp=F
 DIIS: error= 1.52D-05 at cycle  14 NSaved=  14.
 NSaved=14 IEnMin=14 EnMin= -345.257507982759     IErMin=14 ErrMin= 1.52D-05
 ErrMax= 1.52D-05 EMaxC= 1.00D-01 BMatC= 7.33D-08 BMatP= 2.28D-07
 IDIUse=1 WtCom= 1.00D+00 WtEn= 0.00D+00
 Coeff-Com: -0.588D-04 0.359D-03 0.252D-02 0.142D-03-0.107D-01 0.571D-02
 Coeff-Com:  0.159D-01 0.191D-04-0.660D-01 0.977D-01 0.195D+00-0.615D+00
 Coeff-Com:  0.103D+00 0.127D+01
 Coeff:     -0.588D-04 0.359D-03 0.252D-02 0.142D-03-0.107D-01 0.571D-02
 Coeff:      0.159D-01 0.191D-04-0.660D-01 0.977D-01 0.195D+00-0.615D+00
 Coeff:      0.103D+00 0.127D+01
 Gap=     0.526 Goal=   None    Shift=    0.000
 Gap=     0.420 Goal=   None    Shift=    0.000
 RMSDP=5.13D-06 MaxDP=1.77D-04 DE=-4.20D-07 OVMax= 4.75D-04

 Cycle  15  Pass 1  IDiag  1:
 E= -345.257508117212     Delta-E=       -0.000000134453 Rises=F Damp=F
 DIIS: error= 1.05D-05 at cycle  15 NSaved=  15.
 NSaved=15 IEnMin=15 EnMin= -345.257508117212     IErMin=15 ErrMin= 1.05D-05
 ErrMax= 1.05D-05 EMaxC= 1.00D-01 BMatC= 1.91D-08 BMatP= 7.33D-08
 IDIUse=1 WtCom= 1.00D+00 WtEn= 0.00D+00
 Coeff-Com:  0.841D-05-0.915D-04-0.392D-03 0.511D-04 0.523D-03-0.126D-02
 Coeff-Com: -0.994D-02 0.152D-01-0.342D-02-0.543D-01 0.427D-01 0.228D+00
 Coeff-Com: -0.423D+00-0.413D+00 0.162D+01
 Coeff:      0.841D-05-0.915D-04-0.392D-03 0.511D-04 0.523D-03-0.126D-02
 Coeff:     -0.994D-02 0.152D-01-0.342D-02-0.543D-01 0.427D-01 0.228D+00
 Coeff:     -0.423D+00-0.413D+00 0.162D+01
 Gap=     0.526 Goal=   None    Shift=    0.000
 Gap=     0.420 Goal=   None    Shift=    0.000
 RMSDP=3.10D-06 MaxDP=1.03D-04 DE=-1.34D-07 OVMax= 2.66D-04

 Cycle  16  Pass 1  IDiag  1:
 E= -345.257508153854     Delta-E=       -0.000000036642 Rises=F Damp=F
 DIIS: error= 7.55D-06 at cycle  16 NSaved=  16.
 NSaved=16 IEnMin=16 EnMin= -345.257508153854     IErMin=16 ErrMin= 7.55D-06
 ErrMax= 7.55D-06 EMaxC= 1.00D-01 BMatC= 4.58D-09 BMatP= 1.91D-08
 IDIUse=1 WtCom= 1.00D+00 WtEn= 0.00D+00
 Coeff-Com:  0.625D-05-0.257D-04-0.319D-03-0.588D-04 0.196D-02-0.111D-02
 Coeff-Com:  0.278D-03-0.262D-02 0.122D-01-0.453D-02-0.503D-01 0.756D-01
 Coeff-Com:  0.844D-01-0.188D+00-0.436D+00 0.151D+01
 Coeff:      0.625D-05-0.257D-04-0.319D-03-0.588D-04 0.196D-02-0.111D-02
 Coeff:      0.278D-03-0.262D-02 0.122D-01-0.453D-02-0.503D-01 0.756D-01
 Coeff:      0.844D-01-0.188D+00-0.436D+00 0.151D+01
 Gap=     0.526 Goal=   None    Shift=    0.000
 Gap=     0.420 Goal=   None    Shift=    0.000
 RMSDP=1.22D-06 MaxDP=4.13D-05 DE=-3.66D-08 OVMax= 6.94D-05

 Cycle  17  Pass 1  IDiag  1:
 E= -345.257508160578     Delta-E=       -0.000000006724 Rises=F Damp=F
 DIIS: error= 3.75D-06 at cycle  17 NSaved=  17.
 NSaved=17 IEnMin=17 EnMin= -345.257508160578     IErMin=17 ErrMin= 3.75D-06
 ErrMax= 3.75D-06 EMaxC= 1.00D-01 BMatC= 1.31D-09 BMatP= 4.58D-09
 IDIUse=1 WtCom= 1.00D+00 WtEn= 0.00D+00
 Coeff-Com: -0.352D-05 0.339D-04 0.152D-03-0.146D-04-0.436D-03 0.670D-03
 Coeff-Com:  0.309D-02-0.498D-02 0.144D-03 0.150D-01-0.992D-02-0.620D-01
 Coeff-Com:  0.103D+00 0.112D+00-0.384D+00-0.349D-01 0.126D+01
 Coeff:     -0.352D-05 0.339D-04 0.152D-03-0.146D-04-0.436D-03 0.670D-03
 Coeff:      0.309D-02-0.498D-02 0.144D-03 0.150D-01-0.992D-02-0.620D-01
 Coeff:      0.103D+00 0.112D+00-0.384D+00-0.349D-01 0.126D+01
 Gap=     0.526 Goal=   None    Shift=    0.000
 Gap=     0.420 Goal=   None    Shift=    0.000
 RMSDP=4.79D-07 MaxDP=1.26D-05 DE=-6.72D-09 OVMax= 2.73D-05

 Cycle  18  Pass 1  IDiag  1:
 E= -345.257508162402     Delta-E=       -0.000000001825 Rises=F Damp=F
 DIIS: error= 2.35D-06 at cycle  18 NSaved=  18.
 NSaved=18 IEnMin=18 EnMin= -345.257508162402     IErMin=18 ErrMin= 2.35D-06
 ErrMax= 2.35D-06 EMaxC= 1.00D-01 BMatC= 5.44D-10 BMatP= 1.31D-09
 IDIUse=1 WtCom= 1.00D+00 WtEn= 0.00D+00
 Coeff-Com: -0.173D-05 0.416D-05 0.846D-04 0.729D-04-0.828D-03 0.502D-03
 Coeff-Com: -0.903D-03 0.207D-02-0.458D-02-0.375D-02 0.214D-01-0.258D-02
 Coeff-Com: -0.658D-01 0.118D-01 0.306D+00-0.443D+00-0.734D+00 0.191D+01
 Coeff:     -0.173D-05 0.416D-05 0.846D-04 0.729D-04-0.828D-03 0.502D-03
 Coeff:     -0.903D-03 0.207D-02-0.458D-02-0.375D-02 0.214D-01-0.258D-02
 Coeff:     -0.658D-01 0.118D-01 0.306D+00-0.443D+00-0.734D+00 0.191D+01
 Gap=     0.526 Goal=   None    Shift=    0.000
 Gap=     0.420 Goal=   None    Shift=    0.000
 RMSDP=4.62D-07 MaxDP=1.30D-05 DE=-1.82D-09 OVMax= 2.83D-05

 Cycle  19  Pass 1  IDiag  1:
 E= -345.257508163391     Delta-E=       -0.000000000989 Rises=F Damp=F
 DIIS: error= 1.18D-06 at cycle  19 NSaved=  19.
 NSaved=19 IEnMin=19 EnMin= -345.257508163391     IErMin=19 ErrMin= 1.18D-06
 ErrMax= 1.18D-06 EMaxC= 1.00D-01 BMatC= 1.71D-10 BMatP= 5.44D-10
 IDIUse=1 WtCom= 1.00D+00 WtEn= 0.00D+00
 Coeff-Com: -0.310D-07 0.135D-05-0.128D-04 0.722D-04 0.803D-04-0.387D-03
 Coeff-Com:  0.142D-03 0.112D-02 0.160D-03-0.110D-02-0.249D-02 0.130D-01
 Coeff-Com:  0.212D-03-0.324D-01-0.308D-01 0.251D+00-0.152D+00-0.903D+00
 Coeff-Com:  0.186D+01
 Coeff:     -0.310D-07 0.135D-05-0.128D-04 0.722D-04 0.803D-04-0.387D-03
 Coeff:      0.142D-03 0.112D-02 0.160D-03-0.110D-02-0.249D-02 0.130D-01
 Coeff:      0.212D-03-0.324D-01-0.308D-01 0.251D+00-0.152D+00-0.903D+00
 Coeff:      0.186D+01
 Gap=     0.526 Goal=   None    Shift=    0.000
 Gap=     0.420 Goal=   None    Shift=    0.000
 RMSDP=3.36D-07 MaxDP=7.32D-06 DE=-9.89D-10 OVMax= 2.07D-05

 Cycle  20  Pass 1  IDiag  1:
 E= -345.257508163725     Delta-E=       -0.000000000334 Rises=F Damp=F
 DIIS: error= 4.91D-07 at cycle  20 NSaved=  20.
 NSaved=20 IEnMin=20 EnMin= -345.257508163725     IErMin=20 ErrMin= 4.91D-07
 ErrMax= 4.91D-07 EMaxC= 1.00D-01 BMatC= 3.40D-11 BMatP= 1.71D-10
 IDIUse=1 WtCom= 1.00D+00 WtEn= 0.00D+00
 Coeff-Com:  0.147D-06 0.881D-08-0.108D-04-0.257D-04 0.135D-03 0.181D-04
 Coeff-Com:  0.329D-03-0.121D-02 0.127D-02 0.144D-02-0.576D-02-0.246D-02
 Coeff-Com:  0.188D-01 0.188D-02-0.700D-01 0.567D-01 0.214D+00-0.319D+00
 Coeff-Com: -0.329D+00 0.143D+01
 Coeff:      0.147D-06 0.881D-08-0.108D-04-0.257D-04 0.135D-03 0.181D-04
 Coeff:      0.329D-03-0.121D-02 0.127D-02 0.144D-02-0.576D-02-0.246D-02
 Coeff:      0.188D-01 0.188D-02-0.700D-01 0.567D-01 0.214D+00-0.319D+00
 Coeff:     -0.329D+00 0.143D+01
 Gap=     0.526 Goal=   None    Shift=    0.000
 Gap=     0.420 Goal=   None    Shift=    0.000
 RMSDP=1.52D-07 MaxDP=5.48D-06 DE=-3.34D-10 OVMax= 1.20D-05

 Cycle  21  Pass 1  IDiag  1:
 E= -345.257508163795     Delta-E=       -0.000000000070 Rises=F Damp=F
 DIIS: error= 2.03D-07 at cycle  21 NSaved=  20.
 NSaved=20 IEnMin=20 EnMin= -345.257508163795     IErMin=20 ErrMin= 2.03D-07
 ErrMax= 2.03D-07 EMaxC= 1.00D-01 BMatC= 4.55D-12 BMatP= 3.40D-11
 IDIUse=1 WtCom= 1.00D+00 WtEn= 0.00D+00
 Coeff-Com:  0.171D-06 0.237D-05-0.611D-05-0.305D-04 0.690D-04-0.312D-05
 Coeff-Com: -0.115D-03-0.996D-04 0.226D-03 0.563D-03-0.246D-02 0.501D-03
 Coeff-Com:  0.374D-02 0.753D-02-0.423D-01 0.218D-01 0.159D+00-0.267D+00
 Coeff-Com: -0.192D+00 0.131D+01
 Coeff:      0.171D-06 0.237D-05-0.611D-05-0.305D-04 0.690D-04-0.312D-05
 Coeff:     -0.115D-03-0.996D-04 0.226D-03 0.563D-03-0.246D-02 0.501D-03
 Coeff:      0.374D-02 0.753D-02-0.423D-01 0.218D-01 0.159D+00-0.267D+00
 Coeff:     -0.192D+00 0.131D+01
 Gap=     0.526 Goal=   None    Shift=    0.000
 Gap=     0.420 Goal=   None    Shift=    0.000
 RMSDP=3.15D-08 MaxDP=9.07D-07 DE=-7.01D-11 OVMax= 1.52D-06

 Cycle  22  Pass 1  IDiag  1:
 E= -345.257508163803     Delta-E=       -0.000000000007 Rises=F Damp=F
 DIIS: error= 6.79D-08 at cycle  22 NSaved=  20.
 NSaved=20 IEnMin=20 EnMin= -345.257508163803     IErMin=20 ErrMin= 6.79D-08
 ErrMax= 6.79D-08 EMaxC= 1.00D-01 BMatC= 9.79D-13 BMatP= 4.55D-12
 IDIUse=1 WtCom= 1.00D+00 WtEn= 0.00D+00
 Coeff-Com:  0.856D-06 0.714D-05-0.178D-04-0.154D-04-0.506D-04 0.230D-03
 Coeff-Com: -0.208D-03-0.268D-03 0.930D-03 0.738D-03-0.308D-02-0.990D-03
 Coeff-Com:  0.114D-01-0.611D-02-0.352D-01 0.365D-01 0.818D-01-0.216D+00
 Coeff-Com: -0.145D+00 0.128D+01
 Coeff:      0.856D-06 0.714D-05-0.178D-04-0.154D-04-0.506D-04 0.230D-03
 Coeff:     -0.208D-03-0.268D-03 0.930D-03 0.738D-03-0.308D-02-0.990D-03
 Coeff:      0.114D-01-0.611D-02-0.352D-01 0.365D-01 0.818D-01-0.216D+00
 Coeff:     -0.145D+00 0.128D+01
 Gap=     0.526 Goal=   None    Shift=    0.000
 Gap=     0.420 Goal=   None    Shift=    0.000
 RMSDP=1.75D-08 MaxDP=4.82D-07 DE=-7.16D-12 OVMax= 1.39D-06

 Cycle  23  Pass 1  IDiag  1:
 E= -345.257508163803     Delta-E=        0.000000000000 Rises=F Damp=F
 DIIS: error= 3.42D-08 at cycle  23 NSaved=  20.
 NSaved=20 IEnMin=19 EnMin= -345.257508163803     IErMin=20 ErrMin= 3.42D-08
 ErrMax= 3.42D-08 EMaxC= 1.00D-01 BMatC= 2.42D-13 BMatP= 9.79D-13
 IDIUse=1 WtCom= 1.00D+00 WtEn= 0.00D+00
 Coeff-Com:  0.344D-06 0.395D-05-0.108D-04 0.703D-05-0.725D-05 0.300D-04
 Coeff-Com: -0.452D-04-0.167D-03 0.499D-03-0.180D-03-0.628D-03-0.164D-02
 Coeff-Com:  0.809D-02-0.334D-02-0.333D-01 0.454D-01 0.680D-01-0.268D+00
 Coeff-Com: -0.191D+00 0.138D+01
 Coeff:      0.344D-06 0.395D-05-0.108D-04 0.703D-05-0.725D-05 0.300D-04
 Coeff:     -0.452D-04-0.167D-03 0.499D-03-0.180D-03-0.628D-03-0.164D-02
 Coeff:      0.809D-02-0.334D-02-0.333D-01 0.454D-01 0.680D-01-0.268D+00
 Coeff:     -0.191D+00 0.138D+01
 Gap=     0.526 Goal=   None    Shift=    0.000
 Gap=     0.420 Goal=   None    Shift=    0.000
 RMSDP=7.86D-09 MaxDP=2.01D-07 DE= 0.00D+00 OVMax= 4.54D-07

 SCF Done:  E(UHF) =  -345.257508164     A.U. after   23 cycles
             Convg  =    0.7860D-08             -V/T =  2.0014
 <Sx>= 0.0000 <Sy>= 0.0000 <Sz>= 0.5000 <S**2>= 1.0025 S= 0.6192
 <L.S>= 0.000000000000E+00
 KE= 3.447766057700D+02 PE=-1.400154782538D+03 EE= 4.150263757512D+02
 Annihilation of the first spin contaminant:
 S**2 before annihilation     1.0025,   after     0.7768
 Leave Link  502 at Tue May  1 13:51:25 2018, MaxMem=  671088640 cpu:     508.7
 (Enter /shared/apps/gaussian/G09_LINUX_LINDA/g09/l801.exe)
 Range of M.O.s used for correlation:     1   127
 NBasis=   127 NAE=    29 NBE=    28 NFC=     0 NFV=     0
 NROrb=    127 NOA=    29 NOB=    28 NVA=    98 NVB=    99
 Leave Link  801 at Tue May  1 13:51:25 2018, MaxMem=  671088640 cpu:       0.4
 (Enter /shared/apps/gaussian/G09_LINUX_LINDA/g09/l1101.exe)
 Using compressed storage, NAtomX=    18.
 Will process  19 centers per pass.
 Leave Link 1101 at Tue May  1 13:51:26 2018, MaxMem=  671088640 cpu:       7.3
 (Enter /shared/apps/gaussian/G09_LINUX_LINDA/g09/l1102.exe)
 Symmetrizing basis deriv contribution to polar:
 IMax=3 JMax=2 DiffMx= 0.00D+00
 Leave Link 1102 at Tue May  1 13:51:26 2018, MaxMem=  671088640 cpu:       1.2
 (Enter /shared/apps/gaussian/G09_LINUX_LINDA/g09/l1110.exe)
 Forming Gx(P) for the SCF density, NAtomX=    18.
 Integral derivatives from FoFDir/FoFCou, PRISM(SPDF).
 Do as many integral derivatives as possible in FoFDir.
 G2DrvN: MDV=     671088392.
 G2DrvN: will do    19 centers at a time, making    1 passes doing MaxLOS=2.
 Calling FoFCou, ICntrl=  3107 FMM=F I1Cent=   0 AccDes= 0.00D+00.
 FoFCou: FMM=F IPFlag=           0 FMFlag=      100000 FMFlg1=           0
         NFxFlg=           0 DoJE=F BraDBF=F KetDBF=F FulRan=T
         Omega=  0.000000  0.000000  1.000000  0.000000  0.000000 ICntrl=    3107 IOpCl=  1
         NMat0=    1 NMatS0=    1 NMatT0=    0 NMatD0=    1 NMtDS0=    0 NMtDT0=    0
         I1Cent=           0 NGrid=           0.
 Symmetry not used in FoFCou.
 FoFDir/FoFCou used for L=0 through L=2.
 End of G2Drv Frequency-dependent properties file   721 does not exist.
 End of G2Drv Frequency-dependent properties file   722 does not exist.
 Leave Link 1110 at Tue May  1 13:51:29 2018, MaxMem=  671088640 cpu:      29.9
 (Enter /shared/apps/gaussian/G09_LINUX_LINDA/g09/l1002.exe)
 Minotr:  UHF open shell wavefunction.
          IDoAtm=111111111111111111
          Direct CPHF calculation.
          Differentiating once with respect to nuclear coordinates.
          Requested convergence is 1.0D-06 RMS, and 1.0D-05 maximum.
          Secondary convergence is 1.0D-12 RMS, and 1.0D-12 maximum.
          NewPWx=T KeepS1=F KeepF1=F KeepIn=T MapXYZ=F SortEE=F KeepMc=T.
          MDV=     671088456 using IRadAn=       2.
          Keep R1 and R2 ints in memory in canonical form, NReq=66894031.
 Symmetry not used in FoFDir.
 MinBra= 0 MaxBra= 2 Meth= 1.
 IRaf=       0 NMat=   1 IRICut=       1 DoRegI=T DoRafI=F ISym2E= 0 JSym2E=0.
          Solving linear equations simultaneously, MaxMat=       0.
          There are    57 degrees of freedom in the 1st order CPHF.  IDoFFX=5.
     51 vectors produced by pass  0 Test12= 9.85D-11 1.75D-07 XBig12= 1.20D-01 1.53D-01.
 AX will form    51 AO Fock derivatives at one time.
     51 vectors produced by pass  1 Test12= 9.85D-11 1.75D-07 XBig12= 9.55D-03 4.86D-02.
     51 vectors produced by pass  2 Test12= 9.85D-11 1.75D-07 XBig12= 6.03D-04 4.59D-03.
     51 vectors produced by pass  3 Test12= 9.85D-11 1.75D-07 XBig12= 1.88D-05 1.02D-03.
     51 vectors produced by pass  4 Test12= 9.85D-11 1.75D-07 XBig12= 4.82D-07 1.31D-04.
     31 vectors produced by pass  5 Test12= 9.85D-11 1.75D-07 XBig12= 6.27D-09 9.15D-06.
      8 vectors produced by pass  6 Test12= 9.85D-11 1.75D-07 XBig12= 9.04D-11 1.09D-06.
 Inverted reduced A of dimension   294 with in-core refinement.
 End of Minotr Frequency-dependent properties file   721 does not exist.
 End of Minotr Frequency-dependent properties file   722 does not exist.
 Leave Link 1002 at Tue May  1 13:51:46 2018, MaxMem=  671088640 cpu:     170.3
 (Enter /shared/apps/gaussian/G09_LINUX_LINDA/g09/l601.exe)
 Copying SCF densities to generalized density rwf, IOpCl= 1 IROHF=0.

 **********************************************************************

            Population analysis using the SCF density.

 **********************************************************************

 Orbital symmetries:
 Alpha Orbitals:
       Occupied  (A) (A) (A) (A) (A) (A) (A) (A) (A) (A) (A) (A)
                 (A) (A) (A) (A) (A) (A) (A) (A) (A) (A) (A) (A)
                 (A) (A) (A) (A) (A)
       Virtual   (A) (A) (A) (A) (A) (A) (A) (A) (A) (A) (A) (A)
                 (A) (A) (A) (A) (A) (A) (A) (A) (A) (A) (A) (A)
                 (A) (A) (A) (A) (A) (A) (A) (A) (A) (A) (A) (A)
                 (A) (A) (A) (A) (A) (A) (A) (A) (A) (A) (A) (A)
                 (A) (A) (A) (A) (A) (A) (A) (A) (A) (A) (A) (A)
                 (A) (A) (A) (A) (A) (A) (A) (A) (A) (A) (A) (A)
                 (A) (A) (A) (A) (A) (A) (A) (A) (A) (A) (A) (A)
                 (A) (A) (A) (A) (A) (A) (A) (A) (A) (A) (A) (A)
                 (A) (A)
 Beta  Orbitals:
       Occupied  (A) (A) (A) (A) (A) (A) (A) (A) (A) (A) (A) (A)
                 (A) (A) (A) (A) (A) (A) (A) (A) (A) (A) (A) (A)
                 (A) (A) (A) (A)
       Virtual   (A) (A) (A) (A) (A) (A) (A) (A) (A) (A) (A) (A)
                 (A) (A) (A) (A) (A) (A) (A) (A) (A) (A) (A) (A)
                 (A) (A) (A) (A) (A) (A) (A) (A) (A) (A) (A) (A)
                 (A) (A) (A) (A) (A) (A) (A) (A) (A) (A) (A) (A)
                 (A) (A) (A) (A) (A) (A) (A) (A) (A) (A) (A) (A)
                 (A) (A) (A) (A) (A) (A) (A) (A) (A) (A) (A) (A)
                 (A) (A) (A) (A) (A) (A) (A) (A) (A) (A) (A) (A)
                 (A) (A) (A) (A) (A) (A) (A) (A) (A) (A) (A) (A)
                 (A) (A) (A)
 The electronic state is 2-A.
 Alpha  occ. eigenvalues --  -20.64443 -20.62568 -11.24600 -11.24384 -11.22183
 Alpha  occ. eigenvalues --  -11.21981 -11.21860  -1.50769  -1.18187  -1.10988
 Alpha  occ. eigenvalues --   -1.01196  -0.94553  -0.88013  -0.73901  -0.72240
 Alpha  occ. eigenvalues --   -0.70396  -0.64413  -0.62185  -0.61088  -0.60552
 Alpha  occ. eigenvalues --   -0.55429  -0.54385  -0.53230  -0.51636  -0.51126
 Alpha  occ. eigenvalues --   -0.48450  -0.48094  -0.43731  -0.33255
 Alpha virt. eigenvalues --    0.19381   0.22540   0.23438   0.26767   0.27164
 Alpha virt. eigenvalues --    0.29784   0.31729   0.32250   0.33376   0.33954
 Alpha virt. eigenvalues --    0.36016   0.38512   0.39471   0.42689   0.44907
 Alpha virt. eigenvalues --    0.50583   0.59518   0.68171   0.71080   0.74198
 Alpha virt. eigenvalues --    0.76131   0.78073   0.79549   0.83380   0.85551
 Alpha virt. eigenvalues --    0.93445   0.95072   0.96402   0.98295   0.99819
 Alpha virt. eigenvalues --    1.03157   1.04449   1.07244   1.07915   1.09790
 Alpha virt. eigenvalues --    1.14138   1.14772   1.16726   1.17521   1.18072
 Alpha virt. eigenvalues --    1.20562   1.22003   1.22128   1.24850   1.26997
 Alpha virt. eigenvalues --    1.27478   1.29631   1.31122   1.37092   1.40599
 Alpha virt. eigenvalues --    1.44342   1.50093   1.57292   1.61331   1.67432
 Alpha virt. eigenvalues --    1.69156   1.71984   1.78490   1.80602   1.81157
 Alpha virt. eigenvalues --    1.89374   1.92157   2.04695   2.10640   2.14420
 Alpha virt. eigenvalues --    2.15481   2.16982   2.18745   2.20268   2.32038
 Alpha virt. eigenvalues --    2.34838   2.36408   2.42839   2.47487   2.48148
 Alpha virt. eigenvalues --    2.54839   2.57282   2.63214   2.68549   2.74976
 Alpha virt. eigenvalues --    2.75614   2.76147   2.77203   2.82544   2.85202
 Alpha virt. eigenvalues --    2.86927   2.88336   3.01682   3.24383   3.29545
 Alpha virt. eigenvalues --    3.40377   3.94398   4.18035   4.53591   4.68739
 Alpha virt. eigenvalues --    4.71816   4.74597   4.96139
  Beta  occ. eigenvalues --  -20.62504 -20.61576 -11.23464 -11.23145 -11.22799
  Beta  occ. eigenvalues --  -11.22165 -11.22039  -1.47079  -1.12581  -1.09449
  Beta  occ. eigenvalues --   -0.99447  -0.94602  -0.86073  -0.71581  -0.71162
  Beta  occ. eigenvalues --   -0.63968  -0.63167  -0.61032  -0.58787  -0.58271
  Beta  occ. eigenvalues --   -0.54818  -0.53845  -0.53015  -0.50970  -0.48160
  Beta  occ. eigenvalues --   -0.46609  -0.45752  -0.34649
  Beta virt. eigenvalues --    0.07390   0.20938   0.22726   0.23484   0.26928
  Beta virt. eigenvalues --    0.27329   0.29952   0.32198   0.33433   0.34158
  Beta virt. eigenvalues --    0.35773   0.36276   0.39063   0.40466   0.43586
  Beta virt. eigenvalues --    0.48020   0.50893   0.59735   0.68404   0.71730
  Beta virt. eigenvalues --    0.73843   0.76951   0.79322   0.80076   0.85220
  Beta virt. eigenvalues --    0.87014   0.92721   0.96671   0.97727   1.00194
  Beta virt. eigenvalues --    1.00653   1.04392   1.04868   1.07595   1.08826
  Beta virt. eigenvalues --    1.10447   1.14076   1.14741   1.16984   1.17958
  Beta virt. eigenvalues --    1.18771   1.21255   1.22243   1.23080   1.24975
  Beta virt. eigenvalues --    1.27714   1.28588   1.30789   1.32076   1.38413
  Beta virt. eigenvalues --    1.40523   1.45592   1.52046   1.57803   1.62524
  Beta virt. eigenvalues --    1.69510   1.71310   1.73454   1.78767   1.81297
  Beta virt. eigenvalues --    1.81616   1.91500   1.94702   2.06700   2.11542
  Beta virt. eigenvalues --    2.15357   2.16510   2.18387   2.19676   2.21960
  Beta virt. eigenvalues --    2.32781   2.36341   2.37916   2.43452   2.48133
  Beta virt. eigenvalues --    2.49218   2.55583   2.57341   2.63116   2.68826
  Beta virt. eigenvalues --    2.75646   2.76372   2.76999   2.79864   2.82953
  Beta virt. eigenvalues --    2.86145   2.87614   2.89960   3.02505   3.24627
  Beta virt. eigenvalues --    3.30583   3.40566   3.95018   4.19688   4.54156
  Beta virt. eigenvalues --    4.69033   4.71552   4.75532   4.96684
          Condensed to atoms (all electrons):
              1          2          3          4          5          6
     1  O    8.305156   0.057282  -0.001352   0.000181  -0.058792  -0.000011
     2  O    0.057282   8.153784   0.000593  -0.000005   0.002642   0.000002
     3  C   -0.001352   0.000593   5.027712   0.610684   0.349163  -0.043665
     4  C    0.000181  -0.000005   0.610684   4.951911  -0.048314   0.345787
     5  C   -0.058792   0.002642   0.349163  -0.048314   5.307611  -0.007659
     6  C   -0.000011   0.000002  -0.043665   0.345787  -0.007659   5.107606
     7  C    0.000000   0.000000  -0.043534   0.347624   0.003358  -0.065854
     8  H   -0.028371   0.256706  -0.000016   0.000001  -0.000403   0.000000
     9  H    0.000038  -0.000001   0.393925  -0.038991  -0.039570   0.003532
    10  H    0.042842  -0.028898  -0.030673  -0.003273   0.234656   0.000153
    11  H   -0.000608   0.000914  -0.033464   0.002326   0.381578   0.000139
    12  H   -0.001261   0.001884  -0.035706  -0.000145   0.386010  -0.000176
    13  H    0.000000   0.000000   0.000194  -0.041742   0.000176   0.388476
    14  H    0.000134  -0.000009  -0.003165  -0.034955  -0.000633   0.395466
    15  H   -0.000005   0.000000   0.000530  -0.041116   0.000248   0.391466
    16  H    0.000000   0.000000  -0.001035  -0.040804   0.000148   0.003651
    17  H    0.000000   0.000000  -0.000363  -0.042330  -0.000097  -0.000934
    18  H    0.000000   0.000000   0.000199  -0.041636  -0.000077  -0.001366
              7          8          9         10         11         12
     1  O    0.000000  -0.028371   0.000038   0.042842  -0.000608  -0.001261
     2  O    0.000000   0.256706  -0.000001  -0.028898   0.000914   0.001884
     3  C   -0.043534  -0.000016   0.393925  -0.030673  -0.033464  -0.035706
     4  C    0.347624   0.000001  -0.038991  -0.003273   0.002326  -0.000145
     5  C    0.003358  -0.000403  -0.039570   0.234656   0.381578   0.386010
     6  C   -0.065854   0.000000   0.003532   0.000153   0.000139  -0.000176
     7  C    5.101978   0.000000  -0.005362  -0.000044  -0.000076   0.000033
     8  H    0.000000   0.316093  -0.000001  -0.000065   0.000292  -0.000091
     9  H   -0.005362  -0.000001   0.502511   0.000434  -0.003131   0.002591
    10  H   -0.000044  -0.000065   0.000434   0.501135  -0.023712  -0.022714
    11  H   -0.000076   0.000292  -0.003131  -0.023712   0.507039  -0.022222
    12  H    0.000033  -0.000091   0.002591  -0.022714  -0.022222   0.480309
    13  H   -0.001718   0.000000  -0.000112  -0.000029   0.000008   0.000080
    14  H    0.003579   0.000001   0.000038  -0.000164   0.000070   0.000557
    15  H   -0.002089   0.000000  -0.000107   0.000093  -0.000008  -0.000117
    16  H    0.394832   0.000000   0.003066  -0.000003  -0.000008   0.000005
    17  H    0.389354   0.000000   0.000112  -0.000003   0.000005   0.000007
    18  H    0.388471   0.000000   0.000148   0.000015  -0.000001  -0.000005
             13         14         15         16         17         18
     1  O    0.000000   0.000134  -0.000005   0.000000   0.000000   0.000000
     2  O    0.000000  -0.000009   0.000000   0.000000   0.000000   0.000000
     3  C    0.000194  -0.003165   0.000530  -0.001035  -0.000363   0.000199
     4  C   -0.041742  -0.034955  -0.041116  -0.040804  -0.042330  -0.041636
     5  C    0.000176  -0.000633   0.000248   0.000148  -0.000097  -0.000077
     6  C    0.388476   0.395466   0.391466   0.003651  -0.000934  -0.001366
     7  C   -0.001718   0.003579  -0.002089   0.394832   0.389354   0.388471
     8  H    0.000000   0.000001   0.000000   0.000000   0.000000   0.000000
     9  H   -0.000112   0.000038  -0.000107   0.003066   0.000112   0.000148
    10  H   -0.000029  -0.000164   0.000093  -0.000003  -0.000003   0.000015
    11  H    0.000008   0.000070  -0.000008  -0.000008   0.000005  -0.000001
    12  H    0.000080   0.000557  -0.000117   0.000005   0.000007  -0.000005
    13  H    0.540654  -0.025003  -0.033092  -0.000059   0.002570  -0.000365
    14  H   -0.025003   0.505350  -0.024946  -0.000091  -0.000041  -0.000063
    15  H   -0.033092  -0.024946   0.530606  -0.000031  -0.000390   0.002649
    16  H   -0.000059  -0.000091  -0.000031   0.516740  -0.024916  -0.024635
    17  H    0.002570  -0.000041  -0.000390  -0.024916   0.542689  -0.034511
    18  H   -0.000365  -0.000063   0.002649  -0.024635  -0.034511   0.539553
 Mulliken atomic charges:
              1
     1  O   -0.315233
     2  O   -0.444895
     3  C   -0.190028
     4  C    0.074797
     5  C   -0.510045
     6  C   -0.516612
     7  C   -0.510551
     8  H    0.455855
     9  H    0.180881
    10  H    0.330251
    11  H    0.190858
    12  H    0.210962
    13  H    0.169962
    14  H    0.183874
    15  H    0.176311
    16  H    0.173142
    17  H    0.168848
    18  H    0.171624
 Sum of Mulliken atomic charges =   0.00000
 Mulliken charges with hydrogens summed into heavy atoms:
              1
     1  O    0.015017
     2  O    0.010960
     3  C   -0.009147
     4  C    0.074797
     5  C   -0.108226
     6  C    0.013535
     7  C    0.003063
 Sum of Mulliken charges with hydrogens summed into heavy atoms =   0.00000
          Atomic-Atomic Spin Densities.
              1          2          3          4          5          6
     1  O    0.782409  -0.049848   0.004003   0.000277  -0.070352  -0.000017
     2  O   -0.049848   0.016016  -0.000224  -0.000004   0.007147   0.000001
     3  C    0.004003  -0.000224  -0.726967   0.034834  -0.037079  -0.000200
     4  C    0.000277  -0.000004   0.034834   0.833861  -0.013279  -0.027856
     5  C   -0.070352   0.007147  -0.037079  -0.013279   0.788398   0.000382
     6  C   -0.000017   0.000001  -0.000200  -0.027856   0.000382  -0.086231
     7  C    0.000001   0.000000  -0.000637  -0.023832   0.000012   0.002251
     8  H    0.000062  -0.000314  -0.000001   0.000000  -0.000023   0.000000
     9  H   -0.000034   0.000001   0.007162  -0.002115  -0.001478   0.000040
    10  H   -0.077827   0.018822   0.015870   0.000165   0.066907  -0.000027
    11  H    0.003321  -0.000906   0.004649  -0.000113  -0.022018  -0.000023
    12  H    0.003348  -0.001276   0.004140  -0.000531  -0.020919   0.000310
    13  H    0.000001   0.000000  -0.000033  -0.012362   0.000101   0.007056
    14  H    0.000001   0.000001   0.000872  -0.002127  -0.000486   0.003445
    15  H   -0.000008   0.000000   0.000030  -0.011793   0.000155   0.007863
    16  H    0.000000   0.000000   0.000970  -0.002228  -0.000003  -0.000063
    17  H    0.000000   0.000000  -0.000176  -0.012685   0.000021   0.000450
    18  H    0.000000   0.000000   0.000194  -0.013346   0.000027   0.000621
              7          8          9         10         11         12
     1  O    0.000001   0.000062  -0.000034  -0.077827   0.003321   0.003348
     2  O    0.000000  -0.000314   0.000001   0.018822  -0.000906  -0.001276
     3  C   -0.000637  -0.000001   0.007162   0.015870   0.004649   0.004140
     4  C   -0.023832   0.000000  -0.002115   0.000165  -0.000113  -0.000531
     5  C    0.000012  -0.000023  -0.001478   0.066907  -0.022018  -0.020919
     6  C    0.002251   0.000000   0.000040  -0.000027  -0.000023   0.000310
     7  C   -0.092498   0.000000   0.000184   0.000018   0.000009   0.000004
     8  H    0.000000  -0.001255   0.000000   0.000212  -0.000033  -0.000005
     9  H    0.000184   0.000000   0.042201  -0.000285  -0.000194  -0.000042
    10  H    0.000018   0.000212  -0.000285  -0.256207   0.009574   0.010675
    11  H    0.000009  -0.000033  -0.000194   0.009574  -0.039593   0.002118
    12  H    0.000004  -0.000005  -0.000042   0.010675   0.002118  -0.041992
    13  H    0.000602   0.000000  -0.000011   0.000007   0.000004   0.000022
    14  H   -0.000075   0.000000   0.000004  -0.000032   0.000014   0.000163
    15  H    0.000356   0.000000   0.000004  -0.000024  -0.000002  -0.000027
    16  H    0.003546   0.000000  -0.000075   0.000001   0.000001   0.000000
    17  H    0.007844   0.000000  -0.000039   0.000001   0.000001   0.000001
    18  H    0.006782   0.000000   0.000052  -0.000005  -0.000001  -0.000001
             13         14         15         16         17         18
     1  O    0.000001   0.000001  -0.000008   0.000000   0.000000   0.000000
     2  O    0.000000   0.000001   0.000000   0.000000   0.000000   0.000000
     3  C   -0.000033   0.000872   0.000030   0.000970  -0.000176   0.000194
     4  C   -0.012362  -0.002127  -0.011793  -0.002228  -0.012685  -0.013346
     5  C    0.000101  -0.000486   0.000155  -0.000003   0.000021   0.000027
     6  C    0.007056   0.003445   0.007863  -0.000063   0.000450   0.000621
     7  C    0.000602  -0.000075   0.000356   0.003546   0.007844   0.006782
     8  H    0.000000   0.000000   0.000000   0.000000   0.000000   0.000000
     9  H   -0.000011   0.000004   0.000004  -0.000075  -0.000039   0.000052
    10  H    0.000007  -0.000032  -0.000024   0.000001   0.000001  -0.000005
    11  H    0.000004   0.000014  -0.000002   0.000001   0.000001  -0.000001
    12  H    0.000022   0.000163  -0.000027   0.000000   0.000001  -0.000001
    13  H    0.035918  -0.000712  -0.007018  -0.000001   0.001590  -0.000626
[...]
    13  H   -0.001714   0.000000  -0.000112  -0.000030   0.000008   0.000084
    14  H    0.003580   0.000001   0.000038  -0.000158   0.000070   0.000547
    15  H   -0.002089   0.000000  -0.000107   0.000094  -0.000008  -0.000119
    16  H    0.394829   0.000000   0.003069  -0.000003  -0.000008   0.000005
    17  H    0.389339   0.000000   0.000113  -0.000003   0.000005   0.000007
    18  H    0.388465   0.000000   0.000146   0.000015  -0.000001  -0.000005
             13         14         15         16         17         18
     1  O    0.000000   0.000132  -0.000005   0.000000   0.000000   0.000000
     2  O    0.000000  -0.000009   0.000000   0.000000   0.000000   0.000000
     3  C    0.000192  -0.003165   0.000527  -0.001030  -0.000362   0.000188
     4  C   -0.041740  -0.034955  -0.041104  -0.040794  -0.042339  -0.041613
     5  C    0.000177  -0.000628   0.000245   0.000148  -0.000097  -0.000078
     6  C    0.388469   0.395456   0.391466   0.003651  -0.000931  -0.001366
     7  C   -0.001714   0.003580  -0.002089   0.394829   0.389339   0.388465
     8  H    0.000000   0.000001   0.000000   0.000000   0.000000   0.000000
     9  H   -0.000112   0.000038  -0.000107   0.003069   0.000113   0.000146
    10  H   -0.000030  -0.000158   0.000094  -0.000003  -0.000003   0.000015
    11  H    0.000008   0.000070  -0.000008  -0.000008   0.000005  -0.000001
    12  H    0.000084   0.000547  -0.000119   0.000005   0.000007  -0.000005
    13  H    0.540667  -0.025005  -0.033095  -0.000059   0.002571  -0.000365
    14  H   -0.025005   0.505527  -0.024963  -0.000091  -0.000041  -0.000063
    15  H   -0.033095  -0.024963   0.530647  -0.000031  -0.000390   0.002647
    16  H   -0.000059  -0.000091  -0.000031   0.516712  -0.024920  -0.024630
    17  H    0.002571  -0.000041  -0.000390  -0.024920   0.542759  -0.034518
    18  H   -0.000365  -0.000063   0.002647  -0.024630  -0.034518   0.539577
 Mulliken atomic charges:
              1
     1  O   -0.313314
     2  O   -0.445476
     3  C   -0.189232
     4  C    0.074419
     5  C   -0.511647
     6  C   -0.516516
     7  C   -0.510557
     8  H    0.456048
     9  H    0.180880
    10  H    0.330107
    11  H    0.190673
    12  H    0.211088
    13  H    0.169952
    14  H    0.183725
    15  H    0.176286
    16  H    0.173155
    17  H    0.168807
    18  H    0.171603
 Sum of Mulliken atomic charges =   0.00000
 Mulliken charges with hydrogens summed into heavy atoms:
              1
     1  O    0.016793
     2  O    0.010572
     3  C   -0.008352
     4  C    0.074419
     5  C   -0.109887
     6  C    0.013447
     7  C    0.003007
 Sum of Mulliken charges with hydrogens summed into heavy atoms =   0.00000
          Atomic-Atomic Spin Densities.
              1          2          3          4          5          6
     1  O    0.788129  -0.050274   0.003934   0.000272  -0.069957  -0.000017
     2  O   -0.050274   0.015412  -0.000225  -0.000004   0.007142   0.000001
     3  C    0.003934  -0.000225  -0.726305   0.034836  -0.036903  -0.000192
     4  C    0.000272  -0.000004   0.034836   0.831869  -0.013146  -0.027756
     5  C   -0.069957   0.007142  -0.036903  -0.013146   0.783999   0.000372
     6  C   -0.000017   0.000001  -0.000192  -0.027756   0.000372  -0.086065
     7  C    0.000001   0.000000  -0.000605  -0.023787   0.000016   0.002244
     8  H    0.000074  -0.000302   0.000000   0.000000  -0.000024   0.000000
     9  H   -0.000033   0.000001   0.007168  -0.002085  -0.001532   0.000041
    10  H   -0.078965   0.019644   0.015737   0.000193   0.067784  -0.000030
    11  H    0.003325  -0.000916   0.004524  -0.000124  -0.021981  -0.000022
    12  H    0.003450  -0.001339   0.004138  -0.000569  -0.021482   0.000312
    13  H    0.000001   0.000000  -0.000029  -0.012344   0.000101   0.007034
    14  H    0.000001   0.000001   0.000871  -0.002127  -0.000481   0.003442
    15  H   -0.000008   0.000000   0.000022  -0.011761   0.000154   0.007838
    16  H    0.000000   0.000000   0.000970  -0.002225  -0.000003  -0.000063
    17  H    0.000000   0.000000  -0.000167  -0.012663   0.000022   0.000449
    18  H    0.000000   0.000000   0.000180  -0.013306   0.000026   0.000619
              7          8          9         10         11         12
     1  O    0.000001   0.000074  -0.000033  -0.078965   0.003325   0.003450
     2  O    0.000000  -0.000302   0.000001   0.019644  -0.000916  -0.001339
     3  C   -0.000605   0.000000   0.007168   0.015737   0.004524   0.004138
     4  C   -0.023787   0.000000  -0.002085   0.000193  -0.000124  -0.000569
     5  C    0.000016  -0.000024  -0.001532   0.067784  -0.021981  -0.021482
     6  C    0.002244   0.000000   0.000041  -0.000030  -0.000022   0.000312
     7  C   -0.092303   0.000000   0.000185   0.000017   0.000008   0.000004
     8  H    0.000000  -0.001221   0.000000   0.000179  -0.000032  -0.000004
     9  H    0.000185   0.000000   0.042155  -0.000268  -0.000190  -0.000043
    10  H    0.000017   0.000179  -0.000268  -0.257908   0.009798   0.011314
    11  H    0.000008  -0.000032  -0.000190   0.009798  -0.039611   0.002106
    12  H    0.000004  -0.000004  -0.000043   0.011314   0.002106  -0.041801
    13  H    0.000597   0.000000  -0.000011   0.000007   0.000004   0.000025
    14  H   -0.000076   0.000000   0.000004  -0.000032   0.000013   0.000160
    15  H    0.000359   0.000000   0.000004  -0.000024  -0.000002  -0.000028
    16  H    0.003536   0.000000  -0.000073   0.000001   0.000001   0.000000
    17  H    0.007808   0.000000  -0.000038   0.000001   0.000001   0.000001
    18  H    0.006778   0.000000   0.000051  -0.000005  -0.000001  -0.000001
             13         14         15         16         17         18
     1  O    0.000001   0.000001  -0.000008   0.000000   0.000000   0.000000
     2  O    0.000000   0.000001   0.000000   0.000000   0.000000   0.000000
     3  C   -0.000029   0.000871   0.000022   0.000970  -0.000167   0.000180
     4  C   -0.012344  -0.002127  -0.011761  -0.002225  -0.012663  -0.013306
     5  C    0.000101  -0.000481   0.000154  -0.000003   0.000022   0.000026
     6  C    0.007034   0.003442   0.007838  -0.000063   0.000449   0.000619
     7  C    0.000597  -0.000076   0.000359   0.003536   0.007808   0.006778
     8  H    0.000000   0.000000   0.000000   0.000000   0.000000   0.000000
     9  H   -0.000011   0.000004   0.000004  -0.000073  -0.000038   0.000051
    10  H    0.000007  -0.000032  -0.000024   0.000001   0.000001  -0.000005
    11  H    0.000004   0.000013  -0.000002   0.000001   0.000001  -0.000001
    12  H    0.000025   0.000160  -0.000028   0.000000   0.000001  -0.000001
    13  H    0.035865  -0.000714  -0.007007  -0.000001   0.001589  -0.000624
    14  H   -0.000714   0.003485  -0.000638   0.000000   0.000001  -0.000002
    15  H   -0.007007  -0.000638   0.032672  -0.000003  -0.000644   0.001660
    16  H   -0.000001   0.000000  -0.000003   0.003321  -0.000621  -0.000788
    17  H    0.001589   0.000001  -0.000644  -0.000621   0.036638  -0.008170
    18  H   -0.000624  -0.000002   0.001660  -0.000788  -0.008170   0.040336
 Mulliken atomic spin densities:
              1
     1  O    0.599933
     2  O   -0.010859
     3  C   -0.692044
     4  C    0.745274
     5  C    0.694106
     6  C   -0.091792
     7  C   -0.095217
     8  H   -0.001330
     9  H    0.045335
    10  H   -0.212556
    11  H   -0.043097
    12  H   -0.043756
    13  H    0.024492
    14  H    0.003907
    15  H    0.022593
    16  H    0.004051
    17  H    0.024206
    18  H    0.026752
 Sum of Mulliken atomic spin densities =   1.00000
 Electronic spatial extent (au):  <R**2>=           1352.2873
 Charge=              0.0000 electrons
 Dipole moment (field-independent basis, Debye):
    X=              0.9045    Y=             -1.5584    Z=             -1.1899  Tot=              2.1593
 Quadrupole moment (field-independent basis, Debye-Ang):
   XX=            -39.5650   YY=            -43.1109   ZZ=            -46.2796
   XY=              6.5751   XZ=              3.7965   YZ=             -0.0125
 Traceless Quadrupole moment (field-independent basis, Debye-Ang):
   XX=              3.4202   YY=             -0.1257   ZZ=             -3.2944
   XY=              6.5751   XZ=              3.7965   YZ=             -0.0125
 Octapole moment (field-independent basis, Debye-Ang**2):
  XXX=            -52.3554  YYY=             -2.7255  ZZZ=              3.2273  XYY=             -7.3909
  XXY=            -20.6259  XXZ=             -5.1906  XZZ=             -6.7315  YZZ=              2.0592
  YYZ=              0.6274  XYZ=             -1.7043
 Hexadecapole moment (field-independent basis, Debye-Ang**3):
 XXXX=          -1125.9305 YYYY=           -239.5247 ZZZZ=           -143.0665 XXXY=             84.9640
 XXXZ=              9.4162 YYYX=             -3.3658 YYYZ=              0.7488 ZZZX=             -1.3511
 ZZZY=              0.0063 XXYY=           -258.7936 XXZZ=           -247.7943 YYZZ=            -63.6156
 XXYZ=              0.6982 YYXZ=              1.4430 ZZXY=              2.5973
 N-N= 2.951070975301D+02 E-N=-2.091061796777D+03  KE= 5.157727196655D+02
                          Isotropic Fermi Contact Couplings
        Atom                 a.u.       MegaHertz       Gauss      10(-4) cm-1
     1  O(17)              0.12302     -74.57486     -26.61016     -24.87550
     2  O(17)              0.02183     -13.23440      -4.72236      -4.41452
     3  C(13)             -0.12459    -140.06768     -49.97963     -46.72155
     4  C(13)              0.13231     148.74034      53.07425      49.61444
     5  C(13)              0.16797     188.82533      67.37757      62.98535
     6  C(13)             -0.03023     -33.98857     -12.12797     -11.33737
     7  C(13)             -0.03163     -35.55562     -12.68713     -11.86008
     8  H(1)              -0.00073      -3.25747      -1.16235      -1.08658
     9  H(1)               0.01397      62.44081      22.28043      20.82801
    10  H(1)              -0.08533    -381.43243    -136.10457    -127.23216
    11  H(1)              -0.01425     -63.70122     -22.73018     -21.24844
    12  H(1)              -0.01488     -66.53107     -23.73994     -22.19238
    13  H(1)               0.01096      48.97024      17.47380      16.33471
    14  H(1)               0.00133       5.93092       2.11630       1.97834
    15  H(1)               0.01016      45.41433      16.20496      15.14859
    16  H(1)               0.00138       6.15570       2.19651       2.05332
    17  H(1)               0.01081      48.31081      17.23850      16.11475
    18  H(1)               0.01182      52.83531      18.85295      17.62396
 --------------------------------------------------------
       Center         ----  Spin Dipole Couplings  ----
                      3XX-RR        3YY-RR        3ZZ-RR
 --------------------------------------------------------
     1   Atom        0.207987     -0.959103      0.751116
     2   Atom        0.091738     -0.022304     -0.069434
     3   Atom        0.169378      0.214663     -0.384041
     4   Atom       -0.181998     -0.292204      0.474201
     5   Atom       -0.012274     -0.273838      0.286113
     6   Atom        0.006237     -0.008495      0.002258
     7   Atom       -0.006495      0.005101      0.001395
     8   Atom        0.014047     -0.008861     -0.005185
     9   Atom        0.028871     -0.024450     -0.004421
    10   Atom        0.065938     -0.104569      0.038631
    11   Atom       -0.014479      0.018439     -0.003960
    12   Atom       -0.025577      0.021528      0.004049
    13   Atom       -0.003123      0.006568     -0.003444
    14   Atom       -0.001248      0.004335     -0.003087
    15   Atom       -0.001612      0.007698     -0.006086
    16   Atom        0.000270      0.000614     -0.000884
    17   Atom        0.007706     -0.003417     -0.004289
    18   Atom        0.005375     -0.004166     -0.001209
 --------------------------------------------------------
                        XY            XZ            YZ
 --------------------------------------------------------
     1   Atom       -0.657594     -1.618874      0.703831
     2   Atom       -0.055741     -0.276594      0.151365
     3   Atom        0.042646      0.240651     -0.083037
     4   Atom       -0.049059     -0.297086      0.098231
     5   Atom       -0.079316     -0.412704      0.122943
     6   Atom       -0.001573      0.000599      0.000358
     7   Atom       -0.001360     -0.004179     -0.000951
     8   Atom        0.006371      0.010134      0.007148
     9   Atom        0.015190      0.008879      0.011164
    10   Atom       -0.068705     -0.179390      0.063474
    11   Atom        0.028106     -0.003646      0.030850
    12   Atom       -0.009674     -0.011118     -0.028971
    13   Atom        0.002155      0.000533     -0.003409
    14   Atom       -0.000398     -0.000853     -0.002473
    15   Atom        0.001027     -0.000248      0.000972
    16   Atom       -0.005893      0.000868     -0.002458
    17   Atom       -0.003056      0.002856      0.000512
    18   Atom       -0.001575      0.005513     -0.002444
 --------------------------------------------------------


 ---------------------------------------------------------------------------------
              Anisotropic Spin Dipole Couplings in Principal Axis System
 ---------------------------------------------------------------------------------

       Atom             a.u.   MegaHertz   Gauss  10(-4) cm-1        Axes

              Baa    -1.2567    90.937    32.449    30.333  0.4899  0.8670  0.0911
     1 O(17)  Bbb    -1.1401    82.500    29.438    27.519  0.6090 -0.4151  0.6758
              Bcc     2.3969  -173.437   -61.887   -57.853 -0.6237  0.2756  0.7314
 
              Baa    -0.3071    22.222     7.929     7.412  0.5079 -0.3246  0.7979
     2 O(17)  Bbb    -0.0431     3.115     1.112     1.039  0.4753  0.8781  0.0547
              Bcc     0.3502   -25.337    -9.041    -8.452  0.7184 -0.3515 -0.6003
 
              Baa    -0.4863   -65.259   -23.286   -21.768 -0.3491  0.1312  0.9279
     3 C(13)  Bbb     0.2237    30.016    10.710    10.012 -0.2261  0.9491 -0.2192
              Bcc     0.2626    35.243    12.575    11.756  0.9094  0.2863  0.3017
 
              Baa    -0.3124   -41.915   -14.956   -13.981  0.5474  0.8305  0.1030
     4 C(13)  Bbb    -0.2897   -38.879   -13.873   -12.969  0.7563 -0.5436  0.3640
              Bcc     0.6021    80.793    28.829    26.950 -0.3583  0.1213  0.9257
 
              Baa    -0.3060   -41.065   -14.653   -13.698  0.6065 -0.5806  0.5432
     5 C(13)  Bbb    -0.2942   -39.478   -14.087   -13.169  0.5587  0.7973  0.2284
              Bcc     0.6002    80.543    28.740    26.866 -0.5657  0.1650  0.8079
 
              Baa    -0.0087    -1.164    -0.415    -0.388  0.1063  0.9936 -0.0383
     6 C(13)  Bbb     0.0022     0.295     0.105     0.098 -0.1268  0.0518  0.9906
              Bcc     0.0065     0.869     0.310     0.290  0.9862 -0.1005  0.1315
 
              Baa    -0.0085    -1.139    -0.407    -0.380  0.9104  0.1188  0.3962
     7 C(13)  Bbb     0.0031     0.422     0.151     0.141 -0.4110  0.1514  0.8990
              Bcc     0.0053     0.717     0.256     0.239 -0.0469  0.9813 -0.1866
 
              Baa    -0.0145    -7.724    -2.756    -2.576  0.0618  0.7574 -0.6501
     8 H(1)   Bbb    -0.0065    -3.465    -1.236    -1.156 -0.4972  0.5881  0.6379
              Bcc     0.0210    11.189     3.992     3.732  0.8655  0.2837  0.4129
 
              Baa    -0.0314   -16.745    -5.975    -5.586 -0.1864  0.9279 -0.3228
     9 H(1)   Bbb    -0.0048    -2.574    -0.918    -0.859 -0.3487  0.2447  0.9047
              Bcc     0.0362    19.319     6.894     6.444  0.9185  0.2812  0.2780
 
              Baa    -0.1288   -68.733   -24.526   -22.927  0.2631  0.9612 -0.0825
    10 H(1)   Bbb    -0.1276   -68.085   -24.294   -22.711  0.6531 -0.1145  0.7485
              Bcc     0.2564   136.819    48.820    45.638  0.7101 -0.2508 -0.6579
 
              Baa    -0.0420   -22.425    -8.002    -7.480  0.6434 -0.5635  0.5182
    11 H(1)   Bbb    -0.0057    -3.033    -1.082    -1.012 -0.6848 -0.1211  0.7186
              Bcc     0.0477    25.457     9.084     8.492  0.3421  0.8172  0.4638
 
              Baa    -0.0368   -19.622    -7.002    -6.545  0.7957  0.3702  0.4794
    12 H(1)   Bbb    -0.0063    -3.357    -1.198    -1.120 -0.6055  0.4633  0.6471
              Bcc     0.0431    22.980     8.200     7.665 -0.0175  0.8051 -0.5928
 
              Baa    -0.0052    -2.784    -0.993    -0.929 -0.5323  0.3236  0.7822
    13 H(1)   Bbb    -0.0027    -1.457    -0.520    -0.486  0.8291  0.0127  0.5590
              Bcc     0.0079     4.241     1.513     1.415  0.1709  0.9461 -0.2751
 
              Baa    -0.0041    -2.207    -0.787    -0.736  0.3071  0.2800  0.9095
    14 H(1)   Bbb    -0.0010    -0.507    -0.181    -0.169  0.9514 -0.0688 -0.3001
              Bcc     0.0051     2.714     0.968     0.905 -0.0215  0.9575 -0.2875
 
              Baa    -0.0062    -3.296    -1.176    -1.099  0.0708 -0.0749  0.9947
    15 H(1)   Bbb    -0.0017    -0.905    -0.323    -0.302  0.9919 -0.1003 -0.0782
              Bcc     0.0079     4.201     1.499     1.401  0.1056  0.9921  0.0672
 
              Baa    -0.0057    -3.055    -1.090    -1.019  0.6623  0.7093  0.2414
    16 H(1)   Bbb    -0.0013    -0.708    -0.253    -0.236 -0.3749  0.0348  0.9264
              Bcc     0.0071     3.763     1.343     1.255 -0.6487  0.7041 -0.2890
 
              Baa    -0.0057    -3.057    -1.091    -1.020 -0.2920 -0.5578  0.7769
    17 H(1)   Bbb    -0.0033    -1.754    -0.626    -0.585  0.0665  0.7985  0.5983
              Bcc     0.0090     4.811     1.717     1.605  0.9541 -0.2264  0.1961
 
              Baa    -0.0058    -3.115    -1.112    -1.039 -0.2117  0.7375  0.6413
    18 H(1)   Bbb    -0.0032    -1.694    -0.604    -0.565  0.4939  0.6470 -0.5809
              Bcc     0.0090     4.809     1.716     1.604  0.8434 -0.1937  0.5012
 

 ---------------------------------------------------------------------------------

 No NMR shielding tensors so no spin-rotation constants.
 Leave Link  601 at Tue May  1 13:52:45 2018, MaxMem=  671088640 cpu:      17.5
 (Enter /shared/apps/gaussian/G09_LINUX_LINDA/g09/l9999.exe)
 1\1\GINC-COMPUTE-3-046\FTS\UHF\6-31G(d)\C5H11O2(2)\ROOT\01-May-2018\0\
 \#p hf/6-31g* opt=(ts,calcfc,noeigentest,ModRedun)\\Gaussian input pre
 pared by ASE\\0,2\O,-3.1683897757,0.1611690131,-0.7145280953\O,-3.8903
 561993,1.2944963747,-0.4515602456\C,0.2223784269,0.376887684,-1.089105
 7161\C,0.9240186716,-0.1485554273,-0.050064438\C,-0.9151086002,1.28273
 99926,-1.0137837602\C,0.6439550946,0.1451991113,1.4014962069\C,2.06944
 52292,-1.0971871913,-0.2978967972\H,-4.2971821229,1.4977408511,-1.2857
 104185\H,0.4990882222,0.0589740377,-2.0810905229\H,-2.0197239783,0.594
 2268882,-0.9073287376\H,-1.1088943169,1.8447351806,-1.9163502025\H,-1.
 0150896721,1.8915209616,-0.1294816803\H,1.5085239754,0.609851846,1.870
 5256928\H,-0.2087293963,0.7926689466,1.5502269265\H,0.4516732962,-0.77
 94878661,1.9400182424\H,2.233504366,-1.2678256299,-1.3553636757\H,2.99
 21894931,-0.7098666337,0.1285103476\H,1.8835997869,-2.0592518538,0.174
 4399183\\Version=EM64L-G09RevB.01\State=2-A\HF=-345.2575622\S2=1.00226
 5\S2-1=0.\S2A=0.776629\RMSD=7.165e-09\RMSF=2.128e-04\Dipole=0.5664866,
 0.3311734,-0.5395674\Quadrupole=-0.9122451,-0.5211803,1.4334254,-3.371
 0583,4.6234244,-1.9446663\PG=C01 [X(C5H11O2)]\\@


 ABOVE ALL I AM AN OPTIMIST FOR NUMBER THEORY,
 AND I HOLD THE HOPE THAT WE MAY NOT BE FAR FROM
 A TIME WHEN IRREFUTABLE ARITHMETIC WILL CELEBRATE
 ITS TRIUMPHS IN PHYSICS AND CHEMISTRY.
   -- HERMANN MINKOWSKI, 1905
 Job cpu time:  0 days  0 hours 22 minutes 24.0 seconds.
 File lengths (MBytes):  RWF=    136 Int=      0 D2E=      0 Chk=      3 Scr=      1
 Normal termination of Gaussian 09 at Tue May  1 13:52:45 2018.
