 Entering Gaussian System, Link 0=g09
 Initial command:
 /shared/apps/gaussian/G09_LINUX_LINDA/g09/l1.exe /home/harms.n/Code/AutoTST/ipython_notebooks/Gau-29809.inp -scrdir=/home/harms.n/Code/AutoTST/ipython_notebooks/
 Entering Link 1 = /shared/apps/gaussian/G09_LINUX_LINDA/g09/l1.exe PID=     29810.
  
 Copyright (c) 1988,1990,1992,1993,1995,1998,2003,2009,2010,
            Gaussian, Inc.  All Rights Reserved.
  
 This is part of the Gaussian(R) 09 program.  It is based on
 the Gaussian(R) 03 system (copyright 2003, Gaussian, Inc.),
 the Gaussian(R) 98 system (copyright 1998, Gaussian, Inc.),
 the Gaussian(R) 94 system (copyright 1995, Gaussian, Inc.),
 the Gaussian 92(TM) system (copyright 1992, Gaussian, Inc.),
 the Gaussian 90(TM) system (copyright 1990, Gaussian, Inc.),
 the Gaussian 88(TM) system (copyright 1988, Gaussian, Inc.),
 the Gaussian 86(TM) system (copyright 1986, Carnegie Mellon
 University), and the Gaussian 82(TM) system (copyright 1983,
 Carnegie Mellon University). Gaussian is a federally registered
 trademark of Gaussian, Inc.
  
 This software contains proprietary and confidential information,
 including trade secrets, belonging to Gaussian, Inc.
  
 This software is provided under written license and may be
 used, copied, transmitted, or stored only in accord with that
 written license.
  
 The following legend is applicable only to US Government
 contracts under FAR:
  
                    RESTRICTED RIGHTS LEGEND
  
 Use, reproduction and disclosure by the US Government is
 subject to restrictions as set forth in subparagraphs (a)
 and (c) of the Commercial Computer Software - Restricted
 Rights clause in FAR 52.227-19.
  
 Gaussian, Inc.
 340 Quinnipiac St., Bldg. 40, Wallingford CT 06492
  
  
 ---------------------------------------------------------------
 Warning -- This program may not be used in any manner that
 competes with the business of Gaussian, Inc. or will provide
 assistance to any competitor of Gaussian, Inc.  The licensee
 of this program is prohibited from giving any competitor of
 Gaussian, Inc. access to this program.  By using this program,
 the user acknowledges that Gaussian, Inc. is engaged in the
 business of creating and licensing software in the field of
 computational chemistry and represents and warrants to the
 licensee that it is not a competitor of Gaussian, Inc. and that
 it will not use this program in any manner prohibited above.
 ---------------------------------------------------------------
  

 Cite this work as:
 Gaussian 09, Revision B.01,
 M. J. Frisch, G. W. Trucks, H. B. Schlegel, G. E. Scuseria, 
 M. A. Robb, J. R. Cheeseman, G. Scalmani, V. Barone, B. Mennucci, 
 G. A. Petersson, H. Nakatsuji, M. Caricato, X. Li, H. P. Hratchian, 
 A. F. Izmaylov, J. Bloino, G. Zheng, J. L. Sonnenberg, M. Hada, 
 M. Ehara, K. Toyota, R. Fukuda, J. Hasegawa, M. Ishida, T. Nakajima, 
 Y. Honda, O. Kitao, H. Nakai, T. Vreven, J. A. Montgomery, Jr., 
 J. E. Peralta, F. Ogliaro, M. Bearpark, J. J. Heyd, E. Brothers, 
 K. N. Kudin, V. N. Staroverov, T. Keith, R. Kobayashi, J. Normand, 
 K. Raghavachari, A. Rendell, J. C. Burant, S. S. Iyengar, J. Tomasi, 
 M. Cossi, N. Rega, J. M. Millam, M. Klene, J. E. Knox, J. B. Cross, 
 V. Bakken, C. Adamo, J. Jaramillo, R. Gomperts, R. E. Stratmann, 
 O. Yazyev, A. J. Austin, R. Cammi, C. Pomelli, J. W. Ochterski, 
 R. L. Martin, K. Morokuma, V. G. Zakrzewski, G. A. Voth, 
 P. Salvador, J. J. Dannenberg, S. Dapprich, A. D. Daniels, 
 O. Farkas, J. B. Foresman, J. V. Ortiz, J. Cioslowski, 
 and D. J. Fox, Gaussian, Inc., Wallingford CT, 2010.
 
 ******************************************
 Gaussian 09:  EM64L-G09RevB.01 12-Aug-2010
                 1-May-2018 
 ******************************************
 %nprocshared=20
 Will use up to   20 processors via shared memory.
 %mem=5GB
 ---------------------------------------------
 #p hf/6-31g* opt=(ts,calcfc,noeigentest) freq
 ---------------------------------------------
 1/5=1,10=4,11=1,18=20,38=1/1,3;
 2/9=110,12=2,17=6,18=5,40=1/2;
 3/5=1,6=6,7=1,11=9,16=1,25=1,30=1,71=2/1,2,3;
 4//1;
 5/5=2,38=5/2;
 8/6=4,10=90,11=11/1;
 11/6=1,8=1,9=11,15=111,16=1/1,2,10;
 10/6=1,7=6,13=1/2;
 6/7=2,8=2,9=2,10=2,28=1/1;
 7/10=1,18=20,25=1/1,2,3,16;
 1/5=1,10=4,11=1,18=20/3(2);
 2/9=110/2;
 99//99;
 2/9=110/2;
 3/5=1,6=6,7=1,11=9,16=1,25=1,30=1,71=1/1,2,3;
 4/5=5,16=3/1;
 5/5=2,38=5/2;
 7//1,2,3,16;
 1/5=1,11=1,18=20/3(-5);
 2/9=110/2;
 6/7=2,8=2,9=2,10=2,19=2,28=1/1;
 99/9=1/99;
 Leave Link    1 at Tue May  1 13:52:45 2018, MaxMem=  671088640 cpu:       1.0
 (Enter /shared/apps/gaussian/G09_LINUX_LINDA/g09/l101.exe)
 ------------------------------
 Gaussian input prepared by ASE
 ------------------------------
 Symbolic Z-matrix:
 Charge =  0 Multiplicity = 2
 O                    -3.16839   0.16117  -0.71453 
 O                    -3.89036   1.2945   -0.45156 
 C                     0.22238   0.37689  -1.08911 
 C                     0.92402  -0.14856  -0.05006 
 C                    -0.91511   1.28274  -1.01378 
 C                     0.64396   0.1452    1.4015 
 C                     2.06945  -1.09719  -0.2979 
 H                    -4.29718   1.49774  -1.28571 
 H                     0.49909   0.05897  -2.08109 
 H                    -2.01972   0.59423  -0.90733 
 H                    -1.10889   1.84474  -1.91635 
 H                    -1.01509   1.89152  -0.12948 
 H                     1.50852   0.60985   1.87053 
 H                    -0.20873   0.79267   1.55023 
 H                     0.45167  -0.77949   1.94002 
 H                     2.2335   -1.26783  -1.35536 
 H                     2.99219  -0.70987   0.12851 
 H                     1.8836   -2.05925   0.17444 
 
 NAtoms=     18 NQM=     18 NQMF=      0 NMic=      0 NMicF=      0 NTot=     18.
                    Isotopes and Nuclear Properties:
 (Nuclear quadrupole moments (NQMom) in fm**2, nuclear magnetic moments (NMagM)
  in nuclear magnetons)

  Atom         1           2           3           4           5           6           7           8           9          10
 IAtWgt=          16          16          12          12          12          12          12           1           1           1
 AtmWgt=  15.9949146  15.9949146  12.0000000  12.0000000  12.0000000  12.0000000  12.0000000   1.0078250   1.0078250   1.0078250
 NucSpn=           0           0           0           0           0           0           0           1           1           1
 AtZEff=   0.0000000   0.0000000   0.0000000   0.0000000   0.0000000   0.0000000   0.0000000   0.0000000   0.0000000   0.0000000
 NQMom=    0.0000000   0.0000000   0.0000000   0.0000000   0.0000000   0.0000000   0.0000000   0.0000000   0.0000000   0.0000000
 NMagM=    0.0000000   0.0000000   0.0000000   0.0000000   0.0000000   0.0000000   0.0000000   2.7928460   2.7928460   2.7928460

  Atom        11          12          13          14          15          16          17          18
 IAtWgt=           1           1           1           1           1           1           1           1
 AtmWgt=   1.0078250   1.0078250   1.0078250   1.0078250   1.0078250   1.0078250   1.0078250   1.0078250
 NucSpn=           1           1           1           1           1           1           1           1
 AtZEff=   0.0000000   0.0000000   0.0000000   0.0000000   0.0000000   0.0000000   0.0000000   0.0000000
 NQMom=    0.0000000   0.0000000   0.0000000   0.0000000   0.0000000   0.0000000   0.0000000   0.0000000
 NMagM=    2.7928460   2.7928460   2.7928460   2.7928460   2.7928460   2.7928460   2.7928460   2.7928460
 Leave Link  101 at Tue May  1 13:52:46 2018, MaxMem=  671088640 cpu:       1.2
 (Enter /shared/apps/gaussian/G09_LINUX_LINDA/g09/l103.exe)

 GradGradGradGradGradGradGradGradGradGradGradGradGradGradGradGradGradGrad
 Berny optimization.
 Initialization pass.
                           ----------------------------
                           !    Initial Parameters    !
                           ! (Angstroms and Degrees)  !
 --------------------------                            --------------------------
 ! Name  Definition              Value          Derivative Info.                !
 --------------------------------------------------------------------------------
 ! R1    R(1,2)                  1.3692         calculate D2E/DX2 analytically  !
 ! R2    R(1,10)                 1.2426         calculate D2E/DX2 analytically  !
 ! R3    R(2,8)                  0.9501         calculate D2E/DX2 analytically  !
 ! R4    R(3,4)                  1.3594         calculate D2E/DX2 analytically  !
 ! R5    R(3,5)                  1.4561         calculate D2E/DX2 analytically  !
 ! R6    R(3,9)                  1.0778         calculate D2E/DX2 analytically  !
 ! R7    R(4,6)                  1.5072         calculate D2E/DX2 analytically  !
 ! R8    R(4,7)                  1.5078         calculate D2E/DX2 analytically  !
 ! R9    R(5,10)                 1.306          calculate D2E/DX2 analytically  !
 ! R10   R(5,11)                 1.0807         calculate D2E/DX2 analytically  !
 ! R11   R(5,12)                 1.0782         calculate D2E/DX2 analytically  !
 ! R12   R(6,13)                 1.0878         calculate D2E/DX2 analytically  !
 ! R13   R(6,14)                 1.0809         calculate D2E/DX2 analytically  !
 ! R14   R(6,15)                 1.0872         calculate D2E/DX2 analytically  !
 ! R15   R(7,16)                 1.0836         calculate D2E/DX2 analytically  !
 ! R16   R(7,17)                 1.0878         calculate D2E/DX2 analytically  !
 ! R17   R(7,18)                 1.0878         calculate D2E/DX2 analytically  !
 ! A1    A(2,1,10)             103.2232         calculate D2E/DX2 analytically  !
 ! A2    A(1,2,8)              103.5463         calculate D2E/DX2 analytically  !
 ! A3    A(4,3,5)              127.1667         calculate D2E/DX2 analytically  !
 ! A4    A(4,3,9)              117.1905         calculate D2E/DX2 analytically  !
 ! A5    A(5,3,9)              115.574          calculate D2E/DX2 analytically  !
 ! A6    A(3,4,6)              124.3928         calculate D2E/DX2 analytically  !
 ! A7    A(3,4,7)              120.641          calculate D2E/DX2 analytically  !
 ! A8    A(6,4,7)              114.9662         calculate D2E/DX2 analytically  !
 ! A9    A(3,5,10)             109.6936         calculate D2E/DX2 analytically  !
 ! A10   A(3,5,11)             114.8588         calculate D2E/DX2 analytically  !
 ! A11   A(3,5,12)             117.7827         calculate D2E/DX2 analytically  !
 ! A12   A(10,5,11)            100.9856         calculate D2E/DX2 analytically  !
 ! A13   A(10,5,12)             98.7649         calculate D2E/DX2 analytically  !
 ! A14   A(11,5,12)            112.0055         calculate D2E/DX2 analytically  !
 ! A15   A(4,6,13)             110.5366         calculate D2E/DX2 analytically  !
 ! A16   A(4,6,14)             113.3179         calculate D2E/DX2 analytically  !
 ! A17   A(4,6,15)             110.1287         calculate D2E/DX2 analytically  !
 ! A18   A(13,6,14)            108.1658         calculate D2E/DX2 analytically  !
 ! A19   A(13,6,15)            106.8749         calculate D2E/DX2 analytically  !
 ! A20   A(14,6,15)            107.5648         calculate D2E/DX2 analytically  !
 ! A21   A(4,7,16)             111.9928         calculate D2E/DX2 analytically  !
 ! A22   A(4,7,17)             110.8528         calculate D2E/DX2 analytically  !
 ! A23   A(4,7,18)             110.8117         calculate D2E/DX2 analytically  !
 ! A24   A(16,7,17)            108.0694         calculate D2E/DX2 analytically  !
 ! A25   A(16,7,18)            108.0796         calculate D2E/DX2 analytically  !
 ! A26   A(17,7,18)            106.8359         calculate D2E/DX2 analytically  !
 ! A27   A(1,10,5)             168.0241         calculate D2E/DX2 analytically  !
 ! D1    D(10,1,2,8)            97.9851         calculate D2E/DX2 analytically  !
 ! D2    D(2,1,10,5)            10.6764         calculate D2E/DX2 analytically  !
 ! D3    D(5,3,4,6)             -0.9643         calculate D2E/DX2 analytically  !
 ! D4    D(5,3,4,7)            178.922          calculate D2E/DX2 analytically  !
 ! D5    D(9,3,4,6)           -177.797          calculate D2E/DX2 analytically  !
 ! D6    D(9,3,4,7)              2.0893         calculate D2E/DX2 analytically  !
 ! D7    D(4,3,5,10)           -87.4706         calculate D2E/DX2 analytically  !
 ! D8    D(4,3,5,11)           159.6433         calculate D2E/DX2 analytically  !
 ! D9    D(4,3,5,12)            24.3382         calculate D2E/DX2 analytically  !
 ! D10   D(9,3,5,10)            89.4061         calculate D2E/DX2 analytically  !
 ! D11   D(9,3,5,11)           -23.48           calculate D2E/DX2 analytically  !
 ! D12   D(9,3,5,12)          -158.7851         calculate D2E/DX2 analytically  !
 ! D13   D(3,4,6,13)          -119.1586         calculate D2E/DX2 analytically  !
 ! D14   D(3,4,6,14)             2.4429         calculate D2E/DX2 analytically  !
 ! D15   D(3,4,6,15)           122.9726         calculate D2E/DX2 analytically  !
 ! D16   D(7,4,6,13)            60.9494         calculate D2E/DX2 analytically  !
 ! D17   D(7,4,6,14)          -177.4491         calculate D2E/DX2 analytically  !
 ! D18   D(7,4,6,15)           -56.9194         calculate D2E/DX2 analytically  !
 ! D19   D(3,4,7,16)             0.573          calculate D2E/DX2 analytically  !
 ! D20   D(3,4,7,17)           121.357          calculate D2E/DX2 analytically  !
 ! D21   D(3,4,7,18)          -120.1955         calculate D2E/DX2 analytically  !
 ! D22   D(6,4,7,16)          -179.5305         calculate D2E/DX2 analytically  !
 ! D23   D(6,4,7,17)           -58.7465         calculate D2E/DX2 analytically  !
 ! D24   D(6,4,7,18)            59.701          calculate D2E/DX2 analytically  !
 ! D25   D(3,5,10,1)           160.0949         calculate D2E/DX2 analytically  !
 ! D26   D(11,5,10,1)          -78.2829         calculate D2E/DX2 analytically  !
 ! D27   D(12,5,10,1)           36.3075         calculate D2E/DX2 analytically  !
 --------------------------------------------------------------------------------
 Trust Radius=3.00D-01 FncErr=1.00D-07 GrdErr=1.00D-07
 Number of steps in this run=     81 maximum allowed number of steps=    108.
 Search for a saddle point of order  1.
 GradGradGradGradGradGradGradGradGradGradGradGradGradGradGradGradGradGrad

 Leave Link  103 at Tue May  1 13:52:46 2018, MaxMem=  671088640 cpu:       0.2
 (Enter /shared/apps/gaussian/G09_LINUX_LINDA/g09/l202.exe)
                          Input orientation:                          
 ---------------------------------------------------------------------
 Center     Atomic      Atomic             Coordinates (Angstroms)
 Number     Number       Type             X           Y           Z
 ---------------------------------------------------------------------
      1          8           0       -3.168390    0.161169   -0.714528
      2          8           0       -3.890356    1.294496   -0.451560
      3          6           0        0.222378    0.376888   -1.089106
      4          6           0        0.924019   -0.148555   -0.050064
      5          6           0       -0.915109    1.282740   -1.013784
      6          6           0        0.643955    0.145199    1.401496
      7          6           0        2.069445   -1.097187   -0.297897
      8          1           0       -4.297182    1.497741   -1.285710
      9          1           0        0.499088    0.058974   -2.081091
     10          1           0       -2.019724    0.594227   -0.907329
     11          1           0       -1.108894    1.844735   -1.916350
     12          1           0       -1.015090    1.891521   -0.129482
     13          1           0        1.508524    0.609852    1.870526
     14          1           0       -0.208729    0.792669    1.550227
     15          1           0        0.451673   -0.779488    1.940018
     16          1           0        2.233504   -1.267826   -1.355364
     17          1           0        2.992189   -0.709867    0.128510
     18          1           0        1.883600   -2.059252    0.174440
 ---------------------------------------------------------------------
                    Distance matrix (angstroms):
                    1          2          3          4          5
     1  O    0.000000
     2  O    1.369240   0.000000
     3  C    3.418209   4.261814   0.000000
     4  C    4.157553   5.042004   1.359410   0.000000
     5  C    2.534709   3.027925   1.456063   2.521855   0.000000
     6  C    4.360251   5.031370   2.536632   1.507234   3.091643
     7  C    5.402958   6.423628   2.492100   1.507755   3.883827
     8  H    1.840338   0.950064   4.660622   5.612312   3.399793
     9  H    3.915141   4.842428   1.077809   2.085354   2.153300
    10  H    1.242636   2.048748   2.259934   3.154718   1.305970
    11  H    2.918954   3.191379   2.147370   3.404257   1.080749
    12  H    2.823668   2.954206   2.178605   2.815734   1.078240
    13  H    5.362587   5.916817   3.235407   2.146042   3.827011
    14  H    3.779881   4.220587   2.706438   2.174846   2.704310
    15  H    4.586536   5.373479   3.250442   2.140471   3.853028
    16  H    5.624336   6.699554   2.611628   2.161325   4.066427
    17  H    6.278706   7.191897   3.214884   2.150416   4.532361
    18  H    5.589556   6.706569   3.207956   2.149874   4.518136
                    6          7          8          9         10
     6  C    0.000000
     7  C    2.542338   0.000000
     8  H    5.784919   6.945745   0.000000
     9  H    3.486665   2.642444   5.070196   0.000000
    10  H    3.553517   4.466945   2.479178   2.829952   0.000000
    11  H    4.119346   4.623434   3.268530   2.408670   1.847026
    12  H    2.854113   4.298267   3.502008   3.075669   1.815849
    13  H    1.087828   2.816145   6.667563   4.115543   4.490574
    14  H    1.080930   3.489584   5.025447   3.771708   3.059193
    15  H    1.087209   2.779637   6.175980   4.107868   4.012765
    16  H    3.481893   1.083637   7.092466   2.301147   4.664539
    17  H    2.804610   1.087795   7.746515   3.418919   5.281373
    18  H    2.811048   1.087754   7.279169   3.389863   4.842222
                   11         12         13         14         15
    11  H    0.000000
    12  H    1.789941   0.000000
    13  H    4.766156   3.465737   0.000000
    14  H    3.732867   2.163126   1.756409   0.000000
    15  H    4.918688   3.683546   1.747005   1.749213   0.000000
    16  H    4.601562   4.694424   3.802319   4.318866   3.777954
    17  H    5.246554   4.784565   2.641503   3.811138   3.120998
    18  H    5.344861   4.909519   3.184573   3.795271   2.608731
                   16         17         18
    16  H    0.000000
    17  H    1.757499   0.000000
    18  H    1.757580   1.746975   0.000000
 Stoichiometry    C5H11O2(2)
 Framework group  C1[X(C5H11O2)]
 Deg. of freedom    48
 Full point group                 C1      NOp   1
 Largest Abelian subgroup         C1      NOp   1
 Largest concise Abelian subgroup C1      NOp   1
                         Standard orientation:                         
 ---------------------------------------------------------------------
 Center     Atomic      Atomic             Coordinates (Angstroms)
 Number     Number       Type             X           Y           Z
 ---------------------------------------------------------------------
      1          8           0       -2.384908   -0.017104    0.875260
      2          8           0       -3.355322    0.378756   -0.005881
      3          6           0        0.697317   -0.905468   -0.305778
      4          6           0        1.672458    0.001183   -0.031768
      5          6           0       -0.628391   -0.635827   -0.844211
      6          6           0        1.546078    1.484632   -0.266636
      7          6           0        2.991532   -0.441019    0.549458
      8          1           0       -3.926947   -0.378016   -0.062131
      9          1           0        0.898277   -1.934963   -0.057934
     10          1           0       -1.455412   -0.375296    0.132373
     11          1           0       -1.113481   -1.485215   -1.303826
     12          1           0       -0.763448    0.266384   -1.418993
     13          1           0        2.299942    1.824703   -0.973326
     14          1           0        0.575667    1.777213   -0.642279
     15          1           0        1.715796    2.026062    0.660765
     16          1           0        3.033263   -1.514605    0.690671
     17          1           0        3.816231   -0.153712   -0.099097
     18          1           0        3.167994    0.033225    1.512351
 ---------------------------------------------------------------------
 Rotational constants (GHZ):      5.0675098      0.9214672      0.8729722
 Leave Link  202 at Tue May  1 13:52:46 2018, MaxMem=  671088640 cpu:       0.9
 (Enter /shared/apps/gaussian/G09_LINUX_LINDA/g09/l301.exe)
 Standard basis: 6-31G(d) (6D, 7F)
 Ernie: Thresh=  0.10000D-02 Tol=  0.10000D-05 Strict=F.
 There are   127 symmetry adapted basis functions of A   symmetry.
 Integral buffers will be    131072 words long.
 Raffenetti 2 integral format.
 Two-electron integral symmetry is turned on.
   127 basis functions,   240 primitive gaussians,   127 cartesian basis functions
    29 alpha electrons       28 beta electrons
       nuclear repulsion energy       295.1070975297 Hartrees.
 IExCor=    0 DFT=F Ex=HF Corr=None ExCW=0 ScaHFX=  1.000000
 ScaDFX=  1.000000  1.000000  1.000000  1.000000 ScalE2=  1.000000  1.000000
 IRadAn=      0 IRanWt=     -1 IRanGd=            0 ICorTp=0
 NAtoms=   18 NActive=   18 NUniq=   18 SFac= 1.00D+00 NAtFMM=   50 NAOKFM=F Big=F
 Leave Link  301 at Tue May  1 13:52:46 2018, MaxMem=  671088640 cpu:       1.0
 (Enter /shared/apps/gaussian/G09_LINUX_LINDA/g09/l302.exe)
 NPDir=0 NMtPBC=     1 NCelOv=     1 NCel=       1 NClECP=     1 NCelD=      1
         NCelK=      1 NCelE2=     1 NClLst=     1 CellRange=     0.0.
 One-electron integrals computed using PRISM.
 NBasis=   127 RedAO= T  NBF=   127
 NBsUse=   127 1.00D-06 NBFU=   127
 Leave Link  302 at Tue May  1 13:52:47 2018, MaxMem=  671088640 cpu:       8.2
 (Enter /shared/apps/gaussian/G09_LINUX_LINDA/g09/l303.exe)
 DipDrv:  MaxL=1.
 Leave Link  303 at Tue May  1 13:52:47 2018, MaxMem=  671088640 cpu:       1.7
 (Enter /shared/apps/gaussian/G09_LINUX_LINDA/g09/l401.exe)
 Harris functional with IExCor=  205 diagonalized for initial guess.
 ExpMin= 1.61D-01 ExpMax= 5.48D+03 ExpMxC= 8.25D+02 IAcc=1 IRadAn=         1 AccDes= 0.00D+00
 HarFok:  IExCor=  205 AccDes= 0.00D+00 IRadAn=         1 IDoV= 1
 ScaDFX=  1.000000  1.000000  1.000000  1.000000
 FoFCou: FMM=F IPFlag=           0 FMFlag=      100000 FMFlg1=           0
         NFxFlg=           0 DoJE=T BraDBF=F KetDBF=T FulRan=T
         Omega=  0.000000  0.000000  1.000000  0.000000  0.000000 ICntrl=     500 IOpCl=  0
         NMat0=    1 NMatS0=    1 NMatT0=    0 NMatD0=    1 NMtDS0=    0 NMtDT0=    0
         I1Cent=           4 NGrid=           0.
 Petite list used in FoFCou.
 Harris En= -345.810890590848    
 Initial guess orbital symmetries:
 Alpha Orbitals:
       Occupied  (A) (A) (A) (A) (A) (A) (A) (A) (A) (A) (A) (A)
                 (A) (A) (A) (A) (A) (A) (A) (A) (A) (A) (A) (A)
                 (A) (A) (A) (A) (A)
       Virtual   (A) (A) (A) (A) (A) (A) (A) (A) (A) (A) (A) (A)
                 (A) (A) (A) (A) (A) (A) (A) (A) (A) (A) (A) (A)
                 (A) (A) (A) (A) (A) (A) (A) (A) (A) (A) (A) (A)
                 (A) (A) (A) (A) (A) (A) (A) (A) (A) (A) (A) (A)
                 (A) (A) (A) (A) (A) (A) (A) (A) (A) (A) (A) (A)
                 (A) (A) (A) (A) (A) (A) (A) (A) (A) (A) (A) (A)
                 (A) (A) (A) (A) (A) (A) (A) (A) (A) (A) (A) (A)
                 (A) (A) (A) (A) (A) (A) (A) (A) (A) (A) (A) (A)
                 (A) (A)
 Beta  Orbitals:
       Occupied  (A) (A) (A) (A) (A) (A) (A) (A) (A) (A) (A) (A)
                 (A) (A) (A) (A) (A) (A) (A) (A) (A) (A) (A) (A)
                 (A) (A) (A) (A)
       Virtual   (A) (A) (A) (A) (A) (A) (A) (A) (A) (A) (A) (A)
                 (A) (A) (A) (A) (A) (A) (A) (A) (A) (A) (A) (A)
                 (A) (A) (A) (A) (A) (A) (A) (A) (A) (A) (A) (A)
                 (A) (A) (A) (A) (A) (A) (A) (A) (A) (A) (A) (A)
                 (A) (A) (A) (A) (A) (A) (A) (A) (A) (A) (A) (A)
                 (A) (A) (A) (A) (A) (A) (A) (A) (A) (A) (A) (A)
                 (A) (A) (A) (A) (A) (A) (A) (A) (A) (A) (A) (A)
                 (A) (A) (A) (A) (A) (A) (A) (A) (A) (A) (A) (A)
                 (A) (A) (A)
 The electronic state of the initial guess is 2-A.
 Initial guess <Sx>= 0.0000 <Sy>= 0.0000 <Sz>= 0.5000 <S**2>= 0.7500 S= 0.5000
 Leave Link  401 at Tue May  1 13:52:50 2018, MaxMem=  671088640 cpu:      25.8
 (Enter /shared/apps/gaussian/G09_LINUX_LINDA/g09/l502.exe)
 UHF open shell SCF:
 Requested convergence on RMS density matrix=1.00D-08 within 128 cycles.
 Requested convergence on MAX density matrix=1.00D-06.
 Requested convergence on             energy=1.00D-06.
 No special actions if energy rises.
 Using DIIS extrapolation, IDIIS=  1040.
 Integral symmetry usage will be decided dynamically.
 Keep R1 and R2 ints in memory in canonical form, NReq=67191093.
 IEnd=       70048 IEndB=       70048 NGot=   671088640 MDV=   604978949
 LenX=   604978949 LenY=   604962379
 Symmetry not used in FoFDir.
 MinBra= 0 MaxBra= 2 Meth= 1.
 IRaf=       0 NMat=   1 IRICut=       1 DoRegI=T DoRafI=F ISym2E= 0 JSym2E=0.

 Cycle   1  Pass 1  IDiag  1:
 E= -344.867862872136    
 DIIS: error= 4.24D-02 at cycle   1 NSaved=   1.
 NSaved= 1 IEnMin= 1 EnMin= -344.867862872136     IErMin= 1 ErrMin= 4.24D-02
 ErrMax= 4.24D-02 EMaxC= 1.00D-01 BMatC= 2.00D+00 BMatP= 2.00D+00
 IDIUse=3 WtCom= 5.76D-01 WtEn= 4.24D-01
 Coeff-Com:  0.100D+01
 Coeff-En:   0.100D+01
 Coeff:      0.100D+01
 Gap=     0.602 Goal=   None    Shift=    0.000
 Gap=     0.524 Goal=   None    Shift=    0.000
 GapD=    0.524 DampG=2.000 DampE=0.500 DampFc=1.0000 IDamp=-1.
 RMSDP=5.76D-03 MaxDP=1.12D-01              OVMax= 1.88D-01

 Cycle   2  Pass 1  IDiag  1:
 E= -345.185284823324     Delta-E=       -0.317421951188 Rises=F Damp=F
 DIIS: error= 1.74D-02 at cycle   2 NSaved=   2.
 NSaved= 2 IEnMin= 2 EnMin= -345.185284823324     IErMin= 2 ErrMin= 1.74D-02
 ErrMax= 1.74D-02 EMaxC= 1.00D-01 BMatC= 2.26D-01 BMatP= 2.00D+00
 IDIUse=3 WtCom= 8.26D-01 WtEn= 1.74D-01
 Coeff-Com:  0.177D+00 0.823D+00
 Coeff-En:   0.000D+00 0.100D+01
 Coeff:      0.146D+00 0.854D+00
 Gap=     0.578 Goal=   None    Shift=    0.000
 Gap=     0.346 Goal=   None    Shift=    0.000
 RMSDP=2.63D-03 MaxDP=4.54D-02 DE=-3.17D-01 OVMax= 9.28D-02

 Cycle   3  Pass 1  IDiag  1:
 E= -345.241467222551     Delta-E=       -0.056182399227 Rises=F Damp=F
 DIIS: error= 5.81D-03 at cycle   3 NSaved=   3.
 NSaved= 3 IEnMin= 3 EnMin= -345.241467222551     IErMin= 3 ErrMin= 5.81D-03
 ErrMax= 5.81D-03 EMaxC= 1.00D-01 BMatC= 1.96D-02 BMatP= 2.26D-01
 IDIUse=3 WtCom= 9.42D-01 WtEn= 5.81D-02
 Coeff-Com: -0.204D-01 0.148D+00 0.872D+00
 Coeff-En:   0.000D+00 0.000D+00 0.100D+01
 Coeff:     -0.192D-01 0.140D+00 0.880D+00
 Gap=     0.500 Goal=   None    Shift=    0.000
 Gap=     0.353 Goal=   None    Shift=    0.000
 RMSDP=6.86D-04 MaxDP=1.40D-02 DE=-5.62D-02 OVMax= 4.94D-02

 Cycle   4  Pass 1  IDiag  1:
 E= -345.249939016958     Delta-E=       -0.008471794407 Rises=F Damp=F
 DIIS: error= 3.07D-03 at cycle   4 NSaved=   4.
 NSaved= 4 IEnMin= 4 EnMin= -345.249939016958     IErMin= 4 ErrMin= 3.07D-03
 ErrMax= 3.07D-03 EMaxC= 1.00D-01 BMatC= 3.82D-03 BMatP= 1.96D-02
 IDIUse=3 WtCom= 9.69D-01 WtEn= 3.07D-02
 Coeff-Com: -0.752D-02-0.190D-01 0.896D-01 0.937D+00
 Coeff-En:   0.000D+00 0.000D+00 0.000D+00 0.100D+01
 Coeff:     -0.728D-02-0.184D-01 0.869D-01 0.939D+00
 Gap=     0.498 Goal=   None    Shift=    0.000
 Gap=     0.371 Goal=   None    Shift=    0.000
 RMSDP=3.71D-04 MaxDP=1.11D-02 DE=-8.47D-03 OVMax= 2.79D-02

 Cycle   5  Pass 1  IDiag  1:
 E= -345.252917033910     Delta-E=       -0.002978016951 Rises=F Damp=F
 DIIS: error= 1.77D-03 at cycle   5 NSaved=   5.
 NSaved= 5 IEnMin= 5 EnMin= -345.252917033910     IErMin= 5 ErrMin= 1.77D-03
 ErrMax= 1.77D-03 EMaxC= 1.00D-01 BMatC= 1.84D-03 BMatP= 3.82D-03
 IDIUse=3 WtCom= 9.82D-01 WtEn= 1.77D-02
 Coeff-Com:  0.118D-01-0.611D-01-0.414D+00-0.162D+00 0.162D+01
 Coeff-En:   0.000D+00 0.000D+00 0.000D+00 0.000D+00 0.100D+01
 Coeff:      0.116D-01-0.600D-01-0.406D+00-0.159D+00 0.161D+01
 Gap=     0.508 Goal=   None    Shift=    0.000
 Gap=     0.399 Goal=   None    Shift=    0.000
 RMSDP=5.59D-04 MaxDP=1.72D-02 DE=-2.98D-03 OVMax= 3.99D-02

 Cycle   6  Pass 1  IDiag  1:
 E= -345.255594493412     Delta-E=       -0.002677459502 Rises=F Damp=F
 DIIS: error= 1.12D-03 at cycle   6 NSaved=   6.
 NSaved= 6 IEnMin= 6 EnMin= -345.255594493412     IErMin= 6 ErrMin= 1.12D-03
 ErrMax= 1.12D-03 EMaxC= 1.00D-01 BMatC= 4.88D-04 BMatP= 1.84D-03
 IDIUse=3 WtCom= 9.89D-01 WtEn= 1.12D-02
 Coeff-Com:  0.259D-02 0.225D-02-0.425D-01-0.143D+00 0.163D+00 0.102D+01
 Coeff-En:   0.000D+00 0.000D+00 0.000D+00 0.000D+00 0.000D+00 0.100D+01
 Coeff:      0.256D-02 0.223D-02-0.420D-01-0.141D+00 0.161D+00 0.102D+01
 Gap=     0.510 Goal=   None    Shift=    0.000
 Gap=     0.405 Goal=   None    Shift=    0.000
 RMSDP=1.91D-04 MaxDP=6.73D-03 DE=-2.68D-03 OVMax= 1.53D-02

 Cycle   7  Pass 1  IDiag  1:
 E= -345.256190304607     Delta-E=       -0.000595811195 Rises=F Damp=F
 DIIS: error= 9.93D-04 at cycle   7 NSaved=   7.
 NSaved= 7 IEnMin= 7 EnMin= -345.256190304607     IErMin= 7 ErrMin= 9.93D-04
 ErrMax= 9.93D-04 EMaxC= 1.00D-01 BMatC= 2.86D-04 BMatP= 4.88D-04
 IDIUse=3 WtCom= 9.90D-01 WtEn= 9.93D-03
 Coeff-Com: -0.383D-02 0.239D-01 0.142D+00 0.477D-01-0.592D+00 0.122D+00
 Coeff-Com:  0.126D+01
 Coeff-En:   0.000D+00 0.000D+00 0.000D+00 0.000D+00 0.000D+00 0.000D+00
 Coeff-En:   0.100D+01
 Coeff:     -0.379D-02 0.236D-01 0.140D+00 0.472D-01-0.586D+00 0.121D+00
 Coeff:      0.126D+01
 Gap=     0.513 Goal=   None    Shift=    0.000
 Gap=     0.409 Goal=   None    Shift=    0.000
 RMSDP=2.15D-04 MaxDP=8.44D-03 DE=-5.96D-04 OVMax= 1.98D-02

 Cycle   8  Pass 1  IDiag  1:
 E= -345.256743404755     Delta-E=       -0.000553100149 Rises=F Damp=F
 DIIS: error= 7.99D-04 at cycle   8 NSaved=   8.
 NSaved= 8 IEnMin= 8 EnMin= -345.256743404755     IErMin= 8 ErrMin= 7.99D-04
 ErrMax= 7.99D-04 EMaxC= 1.00D-01 BMatC= 1.61D-04 BMatP= 2.86D-04
 IDIUse=3 WtCom= 9.92D-01 WtEn= 7.99D-03
 Coeff-Com:  0.316D-02-0.286D-01-0.141D+00 0.443D-01 0.510D+00-0.690D+00
 Coeff-Com: -0.147D+01 0.277D+01
 Coeff-En:   0.000D+00 0.000D+00 0.000D+00 0.000D+00 0.000D+00 0.000D+00
 Coeff-En:   0.000D+00 0.100D+01
 Coeff:      0.314D-02-0.283D-01-0.140D+00 0.439D-01 0.506D+00-0.685D+00
 Coeff:     -0.146D+01 0.276D+01
 Gap=     0.520 Goal=   None    Shift=    0.000
 Gap=     0.417 Goal=   None    Shift=    0.000
 RMSDP=3.90D-04 MaxDP=1.60D-02 DE=-5.53D-04 OVMax= 3.70D-02

 Cycle   9  Pass 1  IDiag  1:
 E= -345.257396192909     Delta-E=       -0.000652788153 Rises=F Damp=F
 DIIS: error= 4.27D-04 at cycle   9 NSaved=   9.
 NSaved= 9 IEnMin= 9 EnMin= -345.257396192909     IErMin= 9 ErrMin= 4.27D-04
 ErrMax= 4.27D-04 EMaxC= 1.00D-01 BMatC= 4.25D-05 BMatP= 1.61D-04
 IDIUse=3 WtCom= 9.96D-01 WtEn= 4.27D-03
 Coeff-Com:  0.106D-02-0.270D-02-0.273D-01-0.539D-01 0.190D+00 0.143D+00
 Coeff-Com: -0.601D-01-0.957D+00 0.177D+01
 Coeff-En:   0.000D+00 0.000D+00 0.000D+00 0.000D+00 0.000D+00 0.000D+00
 Coeff-En:   0.000D+00 0.000D+00 0.100D+01
 Coeff:      0.106D-02-0.269D-02-0.272D-01-0.537D-01 0.189D+00 0.142D+00
 Coeff:     -0.599D-01-0.953D+00 0.176D+01
 Gap=     0.524 Goal=   None    Shift=    0.000
 Gap=     0.420 Goal=   None    Shift=    0.000
 RMSDP=2.15D-04 MaxDP=9.02D-03 DE=-6.53D-04 OVMax= 2.01D-02

 Cycle  10  Pass 1  IDiag  1:
 E= -345.257544015547     Delta-E=       -0.000147822639 Rises=F Damp=F
 DIIS: error= 1.48D-04 at cycle  10 NSaved=  10.
 NSaved=10 IEnMin=10 EnMin= -345.257544015547     IErMin=10 ErrMin= 1.48D-04
 ErrMax= 1.48D-04 EMaxC= 1.00D-01 BMatC= 6.76D-06 BMatP= 4.25D-05
 IDIUse=3 WtCom= 9.99D-01 WtEn= 1.48D-03
 Coeff-Com: -0.560D-03 0.481D-02 0.262D-01-0.183D-01-0.782D-01 0.116D+00
 Coeff-Com:  0.239D+00-0.366D+00-0.168D+00 0.125D+01
 Coeff-En:   0.000D+00 0.000D+00 0.000D+00 0.000D+00 0.000D+00 0.000D+00
 Coeff-En:   0.000D+00 0.000D+00 0.000D+00 0.100D+01
 Coeff:     -0.559D-03 0.480D-02 0.261D-01-0.183D-01-0.781D-01 0.116D+00
 Coeff:      0.238D+00-0.365D+00-0.168D+00 0.125D+01
 Gap=     0.525 Goal=   None    Shift=    0.000
 Gap=     0.420 Goal=   None    Shift=    0.000
 RMSDP=3.98D-05 MaxDP=1.49D-03 DE=-1.48D-04 OVMax= 3.83D-03

 Cycle  11  Pass 1  IDiag  1:
 E= -345.257555602267     Delta-E=       -0.000011586720 Rises=F Damp=F
 DIIS: error= 9.90D-05 at cycle  11 NSaved=  11.
 NSaved=11 IEnMin=11 EnMin= -345.257555602267     IErMin=11 ErrMin= 9.90D-05
 ErrMax= 9.90D-05 EMaxC= 1.00D-01 BMatC= 2.26D-06 BMatP= 6.76D-06
 IDIUse=1 WtCom= 1.00D+00 WtEn= 0.00D+00
 Coeff-Com: -0.223D-03 0.623D-03 0.753D-02 0.298D-02-0.320D-01-0.220D-01
 Coeff-Com: -0.147D-01 0.209D+00-0.349D+00-0.171D+00 0.137D+01
 Coeff:     -0.223D-03 0.623D-03 0.753D-02 0.298D-02-0.320D-01-0.220D-01
 Coeff:     -0.147D-01 0.209D+00-0.349D+00-0.171D+00 0.137D+01
 Gap=     0.526 Goal=   None    Shift=    0.000
 Gap=     0.420 Goal=   None    Shift=    0.000
 RMSDP=2.61D-05 MaxDP=8.87D-04 DE=-1.16D-05 OVMax= 2.57D-03

 Cycle  12  Pass 1  IDiag  1:
 E= -345.257559974618     Delta-E=       -0.000004372351 Rises=F Damp=F
 DIIS: error= 5.62D-05 at cycle  12 NSaved=  12.
 NSaved=12 IEnMin=12 EnMin= -345.257559974618     IErMin=12 ErrMin= 5.62D-05
 ErrMax= 5.62D-05 EMaxC= 1.00D-01 BMatC= 7.97D-07 BMatP= 2.26D-06
 IDIUse=1 WtCom= 1.00D+00 WtEn= 0.00D+00
 Coeff-Com:  0.239D-03-0.143D-02-0.880D-02-0.565D-02 0.459D-01-0.193D-01
 Coeff-Com: -0.579D-01-0.116D-01 0.221D+00-0.276D+00-0.653D+00 0.177D+01
 Coeff:      0.239D-03-0.143D-02-0.880D-02-0.565D-02 0.459D-01-0.193D-01
 Coeff:     -0.579D-01-0.116D-01 0.221D+00-0.276D+00-0.653D+00 0.177D+01
 Gap=     0.526 Goal=   None    Shift=    0.000
 Gap=     0.420 Goal=   None    Shift=    0.000
 RMSDP=1.80D-05 MaxDP=4.04D-04 DE=-4.37D-06 OVMax= 1.80D-03

 Cycle  13  Pass 1  IDiag  1:
 E= -345.257561637590     Delta-E=       -0.000001662972 Rises=F Damp=F
 DIIS: error= 2.67D-05 at cycle  13 NSaved=  13.
 NSaved=13 IEnMin=13 EnMin= -345.257561637590     IErMin=13 ErrMin= 2.67D-05
 ErrMax= 2.67D-05 EMaxC= 1.00D-01 BMatC= 2.33D-07 BMatP= 7.97D-07
 IDIUse=1 WtCom= 1.00D+00 WtEn= 0.00D+00
 Coeff-Com:  0.105D-04 0.117D-03 0.171D-03-0.257D-02 0.619D-02 0.549D-02
 Coeff-Com:  0.216D-01-0.599D-01 0.612D-01 0.118D+00-0.282D+00-0.350D+00
 Coeff-Com:  0.148D+01
 Coeff:      0.105D-04 0.117D-03 0.171D-03-0.257D-02 0.619D-02 0.549D-02
 Coeff:      0.216D-01-0.599D-01 0.612D-01 0.118D+00-0.282D+00-0.350D+00
 Coeff:      0.148D+01
 Gap=     0.526 Goal=   None    Shift=    0.000
 Gap=     0.420 Goal=   None    Shift=    0.000
 RMSDP=9.06D-06 MaxDP=3.13D-04 DE=-1.66D-06 OVMax= 7.82D-04

 Cycle  14  Pass 1  IDiag  1:
 E= -345.257562068133     Delta-E=       -0.000000430543 Rises=F Damp=F
 DIIS: error= 1.54D-05 at cycle  14 NSaved=  14.
 NSaved=14 IEnMin=14 EnMin= -345.257562068133     IErMin=14 ErrMin= 1.54D-05
 ErrMax= 1.54D-05 EMaxC= 1.00D-01 BMatC= 7.38D-08 BMatP= 2.33D-07
 IDIUse=1 WtCom= 1.00D+00 WtEn= 0.00D+00
 Coeff-Com: -0.579D-04 0.351D-03 0.249D-02 0.158D-03-0.107D-01 0.579D-02
 Coeff-Com:  0.152D-01 0.115D-02-0.663D-01 0.954D-01 0.194D+00-0.605D+00
 Coeff-Com:  0.115D+00 0.125D+01
 Coeff:     -0.579D-04 0.351D-03 0.249D-02 0.158D-03-0.107D-01 0.579D-02
 Coeff:      0.152D-01 0.115D-02-0.663D-01 0.954D-01 0.194D+00-0.605D+00
 Coeff:      0.115D+00 0.125D+01
 Gap=     0.526 Goal=   None    Shift=    0.000
 Gap=     0.420 Goal=   None    Shift=    0.000
 RMSDP=5.14D-06 MaxDP=1.74D-04 DE=-4.31D-07 OVMax= 4.75D-04

 Cycle  15  Pass 1  IDiag  1:
 E= -345.257562202583     Delta-E=       -0.000000134450 Rises=F Damp=F
 DIIS: error= 1.07D-05 at cycle  15 NSaved=  15.
 NSaved=15 IEnMin=15 EnMin= -345.257562202583     IErMin=15 ErrMin= 1.07D-05
 ErrMax= 1.07D-05 EMaxC= 1.00D-01 BMatC= 1.94D-08 BMatP= 7.38D-08
 IDIUse=1 WtCom= 1.00D+00 WtEn= 0.00D+00
 Coeff-Com:  0.829D-05-0.907D-04-0.388D-03 0.591D-04 0.491D-03-0.125D-02
 Coeff-Com: -0.990D-02 0.151D-01-0.350D-02-0.535D-01 0.426D-01 0.226D+00
 Coeff-Com: -0.439D+00-0.367D+00 0.159D+01
 Coeff:      0.829D-05-0.907D-04-0.388D-03 0.591D-04 0.491D-03-0.125D-02
 Coeff:     -0.990D-02 0.151D-01-0.350D-02-0.535D-01 0.426D-01 0.226D+00
 Coeff:     -0.439D+00-0.367D+00 0.159D+01
 Gap=     0.526 Goal=   None    Shift=    0.000
 Gap=     0.420 Goal=   None    Shift=    0.000
 RMSDP=3.08D-06 MaxDP=1.02D-04 DE=-1.34D-07 OVMax= 2.62D-04

 Cycle  16  Pass 1  IDiag  1:
 E= -345.257562239229     Delta-E=       -0.000000036646 Rises=F Damp=F
 DIIS: error= 7.69D-06 at cycle  16 NSaved=  16.
 NSaved=16 IEnMin=16 EnMin= -345.257562239229     IErMin=16 ErrMin= 7.69D-06
 ErrMax= 7.69D-06 EMaxC= 1.00D-01 BMatC= 4.79D-09 BMatP= 1.94D-08
 IDIUse=1 WtCom= 1.00D+00 WtEn= 0.00D+00
 Coeff-Com:  0.620D-05-0.251D-04-0.319D-03-0.481D-04 0.196D-02-0.115D-02
 Coeff-Com:  0.343D-03-0.265D-02 0.122D-01-0.463D-02-0.499D-01 0.761D-01
 Coeff-Com:  0.839D-01-0.202D+00-0.421D+00 0.151D+01
 Coeff:      0.620D-05-0.251D-04-0.319D-03-0.481D-04 0.196D-02-0.115D-02
 Coeff:      0.343D-03-0.265D-02 0.122D-01-0.463D-02-0.499D-01 0.761D-01
 Coeff:      0.839D-01-0.202D+00-0.421D+00 0.151D+01
 Gap=     0.526 Goal=   None    Shift=    0.000
 Gap=     0.420 Goal=   None    Shift=    0.000
 RMSDP=1.24D-06 MaxDP=4.13D-05 DE=-3.66D-08 OVMax= 6.80D-05

 Cycle  17  Pass 1  IDiag  1:
 E= -345.257562246212     Delta-E=       -0.000000006983 Rises=F Damp=F
 DIIS: error= 3.82D-06 at cycle  17 NSaved=  17.
 NSaved=17 IEnMin=17 EnMin= -345.257562246212     IErMin=17 ErrMin= 3.82D-06
 ErrMax= 3.82D-06 EMaxC= 1.00D-01 BMatC= 1.40D-09 BMatP= 4.79D-09
 IDIUse=1 WtCom= 1.00D+00 WtEn= 0.00D+00
 Coeff-Com: -0.368D-05 0.352D-04 0.159D-03-0.125D-04-0.464D-03 0.706D-03
 Coeff-Com:  0.318D-02-0.509D-02 0.118D-03 0.152D-01-0.999D-02-0.631D-01
 Coeff-Com:  0.110D+00 0.104D+00-0.386D+00-0.360D-01 0.127D+01
 Coeff:     -0.368D-05 0.352D-04 0.159D-03-0.125D-04-0.464D-03 0.706D-03
 Coeff:      0.318D-02-0.509D-02 0.118D-03 0.152D-01-0.999D-02-0.631D-01
 Coeff:      0.110D+00 0.104D+00-0.386D+00-0.360D-01 0.127D+01
 Gap=     0.526 Goal=   None    Shift=    0.000
 Gap=     0.420 Goal=   None    Shift=    0.000
 RMSDP=4.96D-07 MaxDP=1.28D-05 DE=-6.98D-09 OVMax= 2.74D-05

 Cycle  18  Pass 1  IDiag  1:
 E= -345.257562248175     Delta-E=       -0.000000001963 Rises=F Damp=F
 DIIS: error= 2.41D-06 at cycle  18 NSaved=  18.
 NSaved=18 IEnMin=18 EnMin= -345.257562248175     IErMin=18 ErrMin= 2.41D-06
 ErrMax= 2.41D-06 EMaxC= 1.00D-01 BMatC= 5.83D-10 BMatP= 1.40D-09
 IDIUse=1 WtCom= 1.00D+00 WtEn= 0.00D+00
 Coeff-Com: -0.180D-05 0.428D-05 0.878D-04 0.740D-04-0.857D-03 0.528D-03
 Coeff-Com: -0.943D-03 0.213D-02-0.473D-02-0.371D-02 0.218D-01-0.306D-02
 Coeff-Com: -0.686D-01 0.200D-01 0.306D+00-0.453D+00-0.738D+00 0.192D+01
 Coeff:     -0.180D-05 0.428D-05 0.878D-04 0.740D-04-0.857D-03 0.528D-03
 Coeff:     -0.943D-03 0.213D-02-0.473D-02-0.371D-02 0.218D-01-0.306D-02
 Coeff:     -0.686D-01 0.200D-01 0.306D+00-0.453D+00-0.738D+00 0.192D+01
 Gap=     0.526 Goal=   None    Shift=    0.000
 Gap=     0.420 Goal=   None    Shift=    0.000
 RMSDP=4.85D-07 MaxDP=1.36D-05 DE=-1.96D-09 OVMax= 2.97D-05

 Cycle  19  Pass 1  IDiag  1:
 E= -345.257562249249     Delta-E=       -0.000000001074 Rises=F Damp=F
 DIIS: error= 1.21D-06 at cycle  19 NSaved=  19.
 NSaved=19 IEnMin=19 EnMin= -345.257562249249     IErMin=19 ErrMin= 1.21D-06
 ErrMax= 1.21D-06 EMaxC= 1.00D-01 BMatC= 1.81D-10 BMatP= 5.83D-10
 IDIUse=1 WtCom= 1.00D+00 WtEn= 0.00D+00
 Coeff-Com: -0.503D-07 0.139D-05-0.125D-04 0.772D-04 0.736D-04-0.403D-03
 Coeff-Com:  0.128D-03 0.120D-02 0.102D-03-0.120D-02-0.222D-02 0.133D-01
 Coeff-Com: -0.912D-03-0.344D-01-0.253D-01 0.250D+00-0.160D+00-0.882D+00
 Coeff-Com:  0.184D+01
 Coeff:     -0.503D-07 0.139D-05-0.125D-04 0.772D-04 0.736D-04-0.403D-03
 Coeff:      0.128D-03 0.120D-02 0.102D-03-0.120D-02-0.222D-02 0.133D-01
 Coeff:     -0.912D-03-0.344D-01-0.253D-01 0.250D+00-0.160D+00-0.882D+00
 Coeff:      0.184D+01
 Gap=     0.526 Goal=   None    Shift=    0.000
 Gap=     0.420 Goal=   None    Shift=    0.000
 RMSDP=3.51D-07 MaxDP=7.80D-06 DE=-1.07D-09 OVMax= 2.20D-05

 Cycle  20  Pass 1  IDiag  1:
 E= -345.257562249601     Delta-E=       -0.000000000353 Rises=F Damp=F
 DIIS: error= 5.01D-07 at cycle  20 NSaved=  20.
 NSaved=20 IEnMin=20 EnMin= -345.257562249601     IErMin=20 ErrMin= 5.01D-07
 ErrMax= 5.01D-07 EMaxC= 1.00D-01 BMatC= 3.55D-11 BMatP= 1.81D-10
 IDIUse=1 WtCom= 1.00D+00 WtEn= 0.00D+00
 Coeff-Com:  0.162D-06-0.505D-07-0.115D-04-0.270D-04 0.142D-03 0.164D-04
 Coeff-Com:  0.336D-03-0.124D-02 0.131D-02 0.142D-02-0.589D-02-0.218D-02
 Coeff-Com:  0.193D-01 0.857D-05-0.695D-01 0.583D-01 0.213D+00-0.323D+00
 Coeff-Com: -0.315D+00 0.142D+01
 Coeff:      0.162D-06-0.505D-07-0.115D-04-0.270D-04 0.142D-03 0.164D-04
 Coeff:      0.336D-03-0.124D-02 0.131D-02 0.142D-02-0.589D-02-0.218D-02
 Coeff:      0.193D-01 0.857D-05-0.695D-01 0.583D-01 0.213D+00-0.323D+00
 Coeff:     -0.315D+00 0.142D+01
 Gap=     0.526 Goal=   None    Shift=    0.000
 Gap=     0.420 Goal=   None    Shift=    0.000
 RMSDP=1.58D-07 MaxDP=5.73D-06 DE=-3.53D-10 OVMax= 1.25D-05

 Cycle  21  Pass 1  IDiag  1:
 E= -345.257562249678     Delta-E=       -0.000000000077 Rises=F Damp=F
 DIIS: error= 2.04D-07 at cycle  21 NSaved=  20.
 NSaved=20 IEnMin=20 EnMin= -345.257562249678     IErMin=20 ErrMin= 2.04D-07
 ErrMax= 2.04D-07 EMaxC= 1.00D-01 BMatC= 4.65D-12 BMatP= 3.55D-11
 IDIUse=1 WtCom= 1.00D+00 WtEn= 0.00D+00
 Coeff-Com:  0.185D-06 0.249D-05-0.643D-05-0.309D-04 0.706D-04-0.322D-05
 Coeff-Com: -0.114D-03-0.105D-03 0.239D-03 0.553D-03-0.246D-02 0.532D-03
 Coeff-Com:  0.401D-02 0.717D-02-0.424D-01 0.224D-01 0.155D+00-0.261D+00
 Coeff-Com: -0.196D+00 0.131D+01
 Coeff:      0.185D-06 0.249D-05-0.643D-05-0.309D-04 0.706D-04-0.322D-05
 Coeff:     -0.114D-03-0.105D-03 0.239D-03 0.553D-03-0.246D-02 0.532D-03
 Coeff:      0.401D-02 0.717D-02-0.424D-01 0.224D-01 0.155D+00-0.261D+00
 Coeff:     -0.196D+00 0.131D+01
 Gap=     0.526 Goal=   None    Shift=    0.000
 Gap=     0.420 Goal=   None    Shift=    0.000
 RMSDP=3.14D-08 MaxDP=9.09D-07 DE=-7.69D-11 OVMax= 1.53D-06

 Cycle  22  Pass 1  IDiag  1:
 E= -345.257562249684     Delta-E=       -0.000000000005 Rises=F Damp=F
 DIIS: error= 6.75D-08 at cycle  22 NSaved=  20.
 NSaved=20 IEnMin=20 EnMin= -345.257562249684     IErMin=20 ErrMin= 6.75D-08
 ErrMax= 6.75D-08 EMaxC= 1.00D-01 BMatC= 9.90D-13 BMatP= 4.65D-12
 IDIUse=1 WtCom= 1.00D+00 WtEn= 0.00D+00
 Coeff-Com:  0.871D-06 0.721D-05-0.182D-04-0.151D-04-0.516D-04 0.231D-03
 Coeff-Com: -0.210D-03-0.261D-03 0.931D-03 0.692D-03-0.312D-02-0.674D-03
 Coeff-Com:  0.112D-01-0.643D-02-0.343D-01 0.369D-01 0.766D-01-0.209D+00
 Coeff-Com: -0.143D+00 0.127D+01
 Coeff:      0.871D-06 0.721D-05-0.182D-04-0.151D-04-0.516D-04 0.231D-03
 Coeff:     -0.210D-03-0.261D-03 0.931D-03 0.692D-03-0.312D-02-0.674D-03
 Coeff:      0.112D-01-0.643D-02-0.343D-01 0.369D-01 0.766D-01-0.209D+00
 Coeff:     -0.143D+00 0.127D+01
 Gap=     0.526 Goal=   None    Shift=    0.000
 Gap=     0.420 Goal=   None    Shift=    0.000
 RMSDP=1.76D-08 MaxDP=4.95D-07 DE=-5.46D-12 OVMax= 1.40D-06

 Cycle  23  Pass 1  IDiag  1:
 E= -345.257562249685     Delta-E=       -0.000000000001 Rises=F Damp=F
 DIIS: error= 3.40D-08 at cycle  23 NSaved=  20.
 NSaved=20 IEnMin=20 EnMin= -345.257562249685     IErMin=20 ErrMin= 3.40D-08
 ErrMax= 3.40D-08 EMaxC= 1.00D-01 BMatC= 2.46D-13 BMatP= 9.90D-13
 IDIUse=1 WtCom= 1.00D+00 WtEn= 0.00D+00
 Coeff-Com:  0.374D-06 0.390D-05-0.109D-04 0.680D-05-0.733D-05 0.306D-04
 Coeff-Com: -0.496D-04-0.158D-03 0.499D-03-0.207D-03-0.667D-03-0.151D-02
 Coeff-Com:  0.801D-02-0.369D-02-0.320D-01 0.444D-01 0.673D-01-0.268D+00
 Coeff-Com: -0.186D+00 0.137D+01
 Coeff:      0.374D-06 0.390D-05-0.109D-04 0.680D-05-0.733D-05 0.306D-04
 Coeff:     -0.496D-04-0.158D-03 0.499D-03-0.207D-03-0.667D-03-0.151D-02
 Coeff:      0.801D-02-0.369D-02-0.320D-01 0.444D-01 0.673D-01-0.268D+00
 Coeff:     -0.186D+00 0.137D+01
 Gap=     0.526 Goal=   None    Shift=    0.000
 Gap=     0.420 Goal=   None    Shift=    0.000
 RMSDP=7.92D-09 MaxDP=2.00D-07 DE=-7.96D-13 OVMax= 4.62D-07

 SCF Done:  E(UHF) =  -345.257562250     A.U. after   23 cycles
             Convg  =    0.7917D-08             -V/T =  2.0014
 <Sx>= 0.0000 <Sy>= 0.0000 <Sz>= 0.5000 <S**2>= 1.0023 S= 0.6190
 <L.S>= 0.000000000000E+00
 KE= 3.447814216602D+02 PE=-1.400180701932D+03 EE= 4.150346204920D+02
 Annihilation of the first spin contaminant:
 S**2 before annihilation     1.0023,   after     0.7766
 Leave Link  502 at Tue May  1 13:53:31 2018, MaxMem=  671088640 cpu:     411.3
 (Enter /shared/apps/gaussian/G09_LINUX_LINDA/g09/l801.exe)
 Range of M.O.s used for correlation:     1   127
 NBasis=   127 NAE=    29 NBE=    28 NFC=     0 NFV=     0
 NROrb=    127 NOA=    29 NOB=    28 NVA=    98 NVB=    99
 Leave Link  801 at Tue May  1 13:53:32 2018, MaxMem=  671088640 cpu:       0.4
 (Enter /shared/apps/gaussian/G09_LINUX_LINDA/g09/l1101.exe)
 Using compressed storage, NAtomX=    18.
 Will process  19 centers per pass.
 Leave Link 1101 at Tue May  1 13:53:33 2018, MaxMem=  671088640 cpu:       8.1
 (Enter /shared/apps/gaussian/G09_LINUX_LINDA/g09/l1102.exe)
 Symmetrizing basis deriv contribution to polar:
 IMax=3 JMax=2 DiffMx= 0.00D+00
 Leave Link 1102 at Tue May  1 13:53:33 2018, MaxMem=  671088640 cpu:       1.0
 (Enter /shared/apps/gaussian/G09_LINUX_LINDA/g09/l1110.exe)
 Forming Gx(P) for the SCF density, NAtomX=    18.
 Integral derivatives from FoFDir/FoFCou, PRISM(SPDF).
 Do as many integral derivatives as possible in FoFDir.
 G2DrvN: MDV=     671088392.
 G2DrvN: will do    19 centers at a time, making    1 passes doing MaxLOS=2.
 Calling FoFCou, ICntrl=  3107 FMM=F I1Cent=   0 AccDes= 0.00D+00.
 FoFCou: FMM=F IPFlag=           0 FMFlag=      100000 FMFlg1=           0
         NFxFlg=           0 DoJE=F BraDBF=F KetDBF=F FulRan=T
         Omega=  0.000000  0.000000  1.000000  0.000000  0.000000 ICntrl=    3107 IOpCl=  1
         NMat0=    1 NMatS0=    1 NMatT0=    0 NMatD0=    1 NMtDS0=    0 NMtDT0=    0
         I1Cent=           0 NGrid=           0.
 Symmetry not used in FoFCou.
 FoFDir/FoFCou used for L=0 through L=2.
 End of G2Drv Frequency-dependent properties file   721 does not exist.
 End of G2Drv Frequency-dependent properties file   722 does not exist.
 Leave Link 1110 at Tue May  1 13:53:36 2018, MaxMem=  671088640 cpu:      29.1
 (Enter /shared/apps/gaussian/G09_LINUX_LINDA/g09/l1002.exe)
 Minotr:  UHF open shell wavefunction.
          IDoAtm=111111111111111111
          Direct CPHF calculation.
          Differentiating once with respect to nuclear coordinates.
          Requested convergence is 1.0D-06 RMS, and 1.0D-05 maximum.
          Secondary convergence is 1.0D-12 RMS, and 1.0D-12 maximum.
          NewPWx=T KeepS1=F KeepF1=F KeepIn=T MapXYZ=F SortEE=F KeepMc=T.
          MDV=     671088456 using IRadAn=       2.
          Keep R1 and R2 ints in memory in canonical form, NReq=66894031.
 Symmetry not used in FoFDir.
 MinBra= 0 MaxBra= 2 Meth= 1.
 IRaf=       0 NMat=   1 IRICut=       1 DoRegI=T DoRafI=F ISym2E= 0 JSym2E=0.
          Solving linear equations simultaneously, MaxMat=       0.
          There are    57 degrees of freedom in the 1st order CPHF.  IDoFFX=5.
     51 vectors produced by pass  0 Test12= 9.85D-11 1.75D-07 XBig12= 1.20D-01 1.54D-01.
 AX will form    51 AO Fock derivatives at one time.
     51 vectors produced by pass  1 Test12= 9.85D-11 1.75D-07 XBig12= 9.54D-03 4.86D-02.
     51 vectors produced by pass  2 Test12= 9.85D-11 1.75D-07 XBig12= 6.03D-04 4.58D-03.
     51 vectors produced by pass  3 Test12= 9.85D-11 1.75D-07 XBig12= 1.98D-05 1.06D-03.
     51 vectors produced by pass  4 Test12= 9.85D-11 1.75D-07 XBig12= 5.02D-07 1.35D-04.
     30 vectors produced by pass  5 Test12= 9.85D-11 1.75D-07 XBig12= 6.49D-09 9.18D-06.
      8 vectors produced by pass  6 Test12= 9.85D-11 1.75D-07 XBig12= 9.34D-11 1.10D-06.
 Inverted reduced A of dimension   293 with in-core refinement.
 End of Minotr Frequency-dependent properties file   721 does not exist.
 End of Minotr Frequency-dependent properties file   722 does not exist.
 Leave Link 1002 at Tue May  1 13:53:54 2018, MaxMem=  671088640 cpu:     179.2
 (Enter /shared/apps/gaussian/G09_LINUX_LINDA/g09/l601.exe)
 Copying SCF densities to generalized density rwf, IOpCl= 1 IROHF=0.

 **********************************************************************

            Population analysis using the SCF density.

 **********************************************************************

 Orbital symmetries:
 Alpha Orbitals:
       Occupied  (A) (A) (A) (A) (A) (A) (A) (A) (A) (A) (A) (A)
                 (A) (A) (A) (A) (A) (A) (A) (A) (A) (A) (A) (A)
                 (A) (A) (A) (A) (A)
       Virtual   (A) (A) (A) (A) (A) (A) (A) (A) (A) (A) (A) (A)
                 (A) (A) (A) (A) (A) (A) (A) (A) (A) (A) (A) (A)
                 (A) (A) (A) (A) (A) (A) (A) (A) (A) (A) (A) (A)
                 (A) (A) (A) (A) (A) (A) (A) (A) (A) (A) (A) (A)
                 (A) (A) (A) (A) (A) (A) (A) (A) (A) (A) (A) (A)
                 (A) (A) (A) (A) (A) (A) (A) (A) (A) (A) (A) (A)
                 (A) (A) (A) (A) (A) (A) (A) (A) (A) (A) (A) (A)
                 (A) (A) (A) (A) (A) (A) (A) (A) (A) (A) (A) (A)
                 (A) (A)
 Beta  Orbitals:
       Occupied  (A) (A) (A) (A) (A) (A) (A) (A) (A) (A) (A) (A)
                 (A) (A) (A) (A) (A) (A) (A) (A) (A) (A) (A) (A)
                 (A) (A) (A) (A)
       Virtual   (A) (A) (A) (A) (A) (A) (A) (A) (A) (A) (A) (A)
                 (A) (A) (A) (A) (A) (A) (A) (A) (A) (A) (A) (A)
                 (A) (A) (A) (A) (A) (A) (A) (A) (A) (A) (A) (A)
                 (A) (A) (A) (A) (A) (A) (A) (A) (A) (A) (A) (A)
                 (A) (A) (A) (A) (A) (A) (A) (A) (A) (A) (A) (A)
                 (A) (A) (A) (A) (A) (A) (A) (A) (A) (A) (A) (A)
                 (A) (A) (A) (A) (A) (A) (A) (A) (A) (A) (A) (A)
                 (A) (A) (A) (A) (A) (A) (A) (A) (A) (A) (A) (A)
                 (A) (A) (A)
 The electronic state is 2-A.
 Alpha  occ. eigenvalues --  -20.64518 -20.62598 -11.24594 -11.24335 -11.22165
 Alpha  occ. eigenvalues --  -11.21974 -11.21857  -1.50824  -1.18232  -1.10976
 Alpha  occ. eigenvalues --   -1.01195  -0.94548  -0.88026  -0.73930  -0.72277
 Alpha  occ. eigenvalues --   -0.70431  -0.64403  -0.62196  -0.61087  -0.60545
 Alpha  occ. eigenvalues --   -0.55422  -0.54380  -0.53208  -0.51663  -0.51128
 Alpha  occ. eigenvalues --   -0.48498  -0.48106  -0.43779  -0.33258
 Alpha virt. eigenvalues --    0.19349   0.22523   0.23447   0.26781   0.27174
 Alpha virt. eigenvalues --    0.29795   0.31748   0.32260   0.33466   0.33979
 Alpha virt. eigenvalues --    0.36031   0.38519   0.39476   0.42798   0.45048
 Alpha virt. eigenvalues --    0.50570   0.59537   0.68188   0.71096   0.74153
 Alpha virt. eigenvalues --    0.76131   0.78099   0.79561   0.83409   0.85571
 Alpha virt. eigenvalues --    0.93543   0.95082   0.96444   0.98337   0.99850
 Alpha virt. eigenvalues --    1.03236   1.04434   1.07224   1.07930   1.09772
 Alpha virt. eigenvalues --    1.14144   1.14788   1.16754   1.17551   1.18079
 Alpha virt. eigenvalues --    1.20575   1.22007   1.22125   1.24844   1.26962
 Alpha virt. eigenvalues --    1.27405   1.29670   1.31055   1.37077   1.40699
 Alpha virt. eigenvalues --    1.44306   1.50102   1.57392   1.61381   1.67452
 Alpha virt. eigenvalues --    1.69161   1.72908   1.78486   1.80585   1.81075
 Alpha virt. eigenvalues --    1.89140   1.92312   2.04729   2.10653   2.14412
 Alpha virt. eigenvalues --    2.15535   2.16977   2.18636   2.20283   2.32162
 Alpha virt. eigenvalues --    2.34785   2.36454   2.42836   2.47405   2.48022
 Alpha virt. eigenvalues --    2.54846   2.57288   2.63217   2.68968   2.75220
 Alpha virt. eigenvalues --    2.75574   2.76576   2.76965   2.82546   2.85209
 Alpha virt. eigenvalues --    2.86946   2.88591   3.01745   3.24409   3.29456
 Alpha virt. eigenvalues --    3.40407   3.94888   4.18311   4.53588   4.68848
 Alpha virt. eigenvalues --    4.71829   4.74663   4.96142
  Beta  occ. eigenvalues --  -20.62534 -20.61633 -11.23447 -11.23142 -11.22756
  Beta  occ. eigenvalues --  -11.22158 -11.22035  -1.47111  -1.12591  -1.09442
  Beta  occ. eigenvalues --   -0.99446  -0.94596  -0.86104  -0.71578  -0.71180
  Beta  occ. eigenvalues --   -0.63961  -0.63154  -0.61028  -0.58824  -0.58284
  Beta  occ. eigenvalues --   -0.54815  -0.53840  -0.53004  -0.50963  -0.48134
  Beta  occ. eigenvalues --   -0.46686  -0.45766  -0.34643
  Beta virt. eigenvalues --    0.07383   0.20903   0.22711   0.23490   0.26939
  Beta virt. eigenvalues --    0.27336   0.29960   0.32211   0.33435   0.34185
  Beta virt. eigenvalues --    0.35856   0.36287   0.39062   0.40472   0.43616
  Beta virt. eigenvalues --    0.48323   0.50868   0.59753   0.68422   0.71727
  Beta virt. eigenvalues --    0.73777   0.76945   0.79321   0.80071   0.85256
  Beta virt. eigenvalues --    0.86994   0.92763   0.96729   0.97780   1.00195
  Beta virt. eigenvalues --    1.00740   1.04473   1.04902   1.07577   1.08839
  Beta virt. eigenvalues --    1.10411   1.14086   1.14750   1.16993   1.17990
  Beta virt. eigenvalues --    1.18809   1.21268   1.22247   1.23093   1.24973
  Beta virt. eigenvalues --    1.27665   1.28531   1.30778   1.32072   1.38376
  Beta virt. eigenvalues --    1.40604   1.45575   1.52053   1.57893   1.62576
  Beta virt. eigenvalues --    1.69487   1.71261   1.74490   1.78782   1.81297
  Beta virt. eigenvalues --    1.81533   1.91240   1.94877   2.06727   2.11540
  Beta virt. eigenvalues --    2.15363   2.16535   2.18404   2.19687   2.21854
  Beta virt. eigenvalues --    2.32903   2.36283   2.37998   2.43429   2.48042
  Beta virt. eigenvalues --    2.49090   2.55584   2.57346   2.63120   2.69094
  Beta virt. eigenvalues --    2.75739   2.76471   2.77516   2.79635   2.82953
  Beta virt. eigenvalues --    2.86148   2.87629   2.90281   3.02585   3.24651
  Beta virt. eigenvalues --    3.30492   3.40594   3.95471   4.20011   4.54150
  Beta virt. eigenvalues --    4.69098   4.71560   4.75638   4.96690
          Condensed to atoms (all electrons):
              1          2          3          4          5          6
     1  O    8.305214   0.057426  -0.001294   0.000174  -0.058518  -0.000011
     2  O    0.057426   8.155116   0.000597  -0.000005   0.002644   0.000002
     3  C   -0.001294   0.000597   5.025458   0.611223   0.349598  -0.043669
     4  C    0.000174  -0.000005   0.611223   4.951257  -0.048041   0.345841
     5  C   -0.058518   0.002644   0.349598  -0.048041   5.306936  -0.007713
     6  C   -0.000011   0.000002  -0.043669   0.345841  -0.007713   5.107561
     7  C    0.000000   0.000000  -0.043516   0.347614   0.003371  -0.065887
     8  H   -0.028387   0.256706  -0.000017   0.000001  -0.000412   0.000000
     9  H    0.000038  -0.000001   0.394012  -0.038915  -0.039646   0.003533
    10  H    0.040387  -0.029873  -0.030563  -0.003192   0.236234   0.000155
    11  H   -0.000617   0.000930  -0.033331   0.002296   0.381686   0.000141
    12  H   -0.001224   0.001943  -0.035618  -0.000127   0.385742  -0.000182
    13  H    0.000000   0.000000   0.000192  -0.041740   0.000177   0.388469
    14  H    0.000132  -0.000009  -0.003165  -0.034955  -0.000628   0.395456
    15  H   -0.000005   0.000000   0.000527  -0.041104   0.000245   0.391466
    16  H    0.000000   0.000000  -0.001030  -0.040794   0.000148   0.003651
    17  H    0.000000   0.000000  -0.000362  -0.042339  -0.000097  -0.000931
    18  H    0.000000   0.000000   0.000188  -0.041613  -0.000078  -0.001366
              7          8          9         10         11         12
     1  O    0.000000  -0.028387   0.000038   0.040387  -0.000617  -0.001224
     2  O    0.000000   0.256706  -0.000001  -0.029873   0.000930   0.001943
     3  C   -0.043516  -0.000017   0.394012  -0.030563  -0.033331  -0.035618
     4  C    0.347614   0.000001  -0.038915  -0.003192   0.002296  -0.000127
     5  C    0.003371  -0.000412  -0.039646   0.236234   0.381686   0.385742
     6  C   -0.065887   0.000000   0.003533   0.000155   0.000141  -0.000182
     7  C    5.102019   0.000000  -0.005369  -0.000043  -0.000076   0.000034
     8  H    0.000000   0.315828  -0.000001   0.000037   0.000288  -0.000091
     9  H   -0.005369  -0.000001   0.502436   0.000409  -0.003104   0.002579
    10  H   -0.000043   0.000037   0.000409   0.504377  -0.023955  -0.023993
    11  H   -0.000076   0.000288  -0.003104  -0.023955   0.507042  -0.022038
    12  H    0.000034  -0.000091   0.002579  -0.023993  -0.022038   0.481368
    13  H   -0.001714   0.000000  -0.000112  -0.000030   0.000008   0.000084
    14  H    0.003580   0.000001   0.000038  -0.000158   0.000070   0.000547
    15  H   -0.002089   0.000000  -0.000107   0.000094  -0.000008  -0.000119
    16  H    0.394829   0.000000   0.003069  -0.000003  -0.000008   0.000005
    17  H    0.389339   0.000000   0.000113  -0.000003   0.000005   0.000007
    18  H    0.388465   0.000000   0.000146   0.000015  -0.000001  -0.000005
             13         14         15         16         17         18
     1  O    0.000000   0.000132  -0.000005   0.000000   0.000000   0.000000
     2  O    0.000000  -0.000009   0.000000   0.000000   0.000000   0.000000
     3  C    0.000192  -0.003165   0.000527  -0.001030  -0.000362   0.000188
     4  C   -0.041740  -0.034955  -0.041104  -0.040794  -0.042339  -0.041613
     5  C    0.000177  -0.000628   0.000245   0.000148  -0.000097  -0.000078
     6  C    0.388469   0.395456   0.391466   0.003651  -0.000931  -0.001366
     7  C   -0.001714   0.003580  -0.002089   0.394829   0.389339   0.388465
     8  H    0.000000   0.000001   0.000000   0.000000   0.000000   0.000000
     9  H   -0.000112   0.000038  -0.000107   0.003069   0.000113   0.000146
    10  H   -0.000030  -0.000158   0.000094  -0.000003  -0.000003   0.000015
    11  H    0.000008   0.000070  -0.000008  -0.000008   0.000005  -0.000001
    12  H    0.000084   0.000547  -0.000119   0.000005   0.000007  -0.000005
    13  H    0.540667  -0.025005  -0.033095  -0.000059   0.002571  -0.000365
    14  H   -0.025005   0.505527  -0.024963  -0.000091  -0.000041  -0.000063
    15  H   -0.033095  -0.024963   0.530647  -0.000031  -0.000390   0.002647
    16  H   -0.000059  -0.000091  -0.000031   0.516712  -0.024920  -0.024630
    17  H    0.002571  -0.000041  -0.000390  -0.024920   0.542759  -0.034518
    18  H   -0.000365  -0.000063   0.002647  -0.024630  -0.034518   0.539577
 Mulliken atomic charges:
              1
     1  O   -0.313314
     2  O   -0.445476
     3  C   -0.189232
     4  C    0.074419
     5  C   -0.511647
     6  C   -0.516516
     7  C   -0.510557
     8  H    0.456048
     9  H    0.180880
    10  H    0.330107
    11  H    0.190673
    12  H    0.211088
    13  H    0.169952
    14  H    0.183725
    15  H    0.176286
    16  H    0.173155
    17  H    0.168807
    18  H    0.171603
 Sum of Mulliken atomic charges =   0.00000
 Mulliken charges with hydrogens summed into heavy atoms:
              1
     1  O    0.016793
     2  O    0.010572
     3  C   -0.008352
     4  C    0.074419
     5  C   -0.109887
     6  C    0.013447
     7  C    0.003007
 Sum of Mulliken charges with hydrogens summed into heavy atoms =   0.00000
          Atomic-Atomic Spin Densities.
              1          2          3          4          5          6
     1  O    0.788130  -0.050274   0.003934   0.000272  -0.069957  -0.000017
     2  O   -0.050274   0.015410  -0.000225  -0.000004   0.007142   0.000001
     3  C    0.003934  -0.000225  -0.726307   0.034836  -0.036903  -0.000192
     4  C    0.000272  -0.000004   0.034836   0.831872  -0.013146  -0.027756
     5  C   -0.069957   0.007142  -0.036903  -0.013146   0.783999   0.000372
     6  C   -0.000017   0.000001  -0.000192  -0.027756   0.000372  -0.086065
     7  C    0.000001   0.000000  -0.000605  -0.023787   0.000016   0.002244
     8  H    0.000074  -0.000302   0.000000   0.000000  -0.000024   0.000000
     9  H   -0.000033   0.000001   0.007168  -0.002085  -0.001532   0.000041
    10  H   -0.078965   0.019644   0.015737   0.000193   0.067784  -0.000030
    11  H    0.003325  -0.000916   0.004524  -0.000124  -0.021981  -0.000022
    12  H    0.003450  -0.001339   0.004138  -0.000569  -0.021482   0.000312
    13  H    0.000001   0.000000  -0.000029  -0.012344   0.000101   0.007034
    14  H    0.000001   0.000001   0.000871  -0.002127  -0.000481   0.003442
    15  H   -0.000008   0.000000   0.000022  -0.011761   0.000154   0.007838
    16  H    0.000000   0.000000   0.000970  -0.002225  -0.000003  -0.000063
    17  H    0.000000   0.000000  -0.000167  -0.012663   0.000022   0.000449
    18  H    0.000000   0.000000   0.000180  -0.013306   0.000026   0.000619
              7          8          9         10         11         12
     1  O    0.000001   0.000074  -0.000033  -0.078965   0.003325   0.003450
     2  O    0.000000  -0.000302   0.000001   0.019644  -0.000916  -0.001339
     3  C   -0.000605   0.000000   0.007168   0.015737   0.004524   0.004138
     4  C   -0.023787   0.000000  -0.002085   0.000193  -0.000124  -0.000569
     5  C    0.000016  -0.000024  -0.001532   0.067784  -0.021981  -0.021482
     6  C    0.002244   0.000000   0.000041  -0.000030  -0.000022   0.000312
     7  C   -0.092303   0.000000   0.000185   0.000017   0.000008   0.000004
     8  H    0.000000  -0.001221   0.000000   0.000179  -0.000032  -0.000004
     9  H    0.000185   0.000000   0.042155  -0.000268  -0.000190  -0.000043
    10  H    0.000017   0.000179  -0.000268  -0.257908   0.009798   0.011314
    11  H    0.000008  -0.000032  -0.000190   0.009798  -0.039611   0.002106
    12  H    0.000004  -0.000004  -0.000043   0.011314   0.002106  -0.041801
    13  H    0.000597   0.000000  -0.000011   0.000007   0.000004   0.000025
    14  H   -0.000076   0.000000   0.000004  -0.000032   0.000013   0.000160
    15  H    0.000359   0.000000   0.000004  -0.000024  -0.000002  -0.000028
    16  H    0.003536   0.000000  -0.000073   0.000001   0.000001   0.000000
    17  H    0.007808   0.000000  -0.000038   0.000001   0.000001   0.000001
    18  H    0.006778   0.000000   0.000051  -0.000005  -0.000001  -0.000001
             13         14         15         16         17         18
     1  O    0.000001   0.000001  -0.000008   0.000000   0.000000   0.000000
     2  O    0.000000   0.000001   0.000000   0.000000   0.000000   0.000000
     3  C   -0.000029   0.000871   0.000022   0.000970  -0.000167   0.000180
     4  C   -0.012344  -0.002127  -0.011761  -0.002225  -0.012663  -0.013306
     5  C    0.000101  -0.000481   0.000154  -0.000003   0.000022   0.000026
     6  C    0.007034   0.003442   0.007838  -0.000063   0.000449   0.000619
     7  C    0.000597  -0.000076   0.000359   0.003536   0.007808   0.006778
     8  H    0.000000   0.000000   0.000000   0.000000   0.000000   0.000000
     9  H   -0.000011   0.000004   0.000004  -0.000073  -0.000038   0.000051
    10  H    0.000007  -0.000032  -0.000024   0.000001   0.000001  -0.000005
    11  H    0.000004   0.000013  -0.000002   0.000001   0.000001  -0.000001
    12  H    0.000025   0.000160  -0.000028   0.000000   0.000001  -0.000001
    13  H    0.035865  -0.000714  -0.007007  -0.000001   0.001589  -0.000624
    14  H   -0.000714   0.003485  -0.000638   0.000000   0.000001  -0.000002
    15  H   -0.007007  -0.000638   0.032672  -0.000003  -0.000644   0.001660
    16  H   -0.000001   0.000000  -0.000003   0.003321  -0.000621  -0.000788
    17  H    0.001589   0.000001  -0.000644  -0.000621   0.036638  -0.008170
    18  H   -0.000624  -0.000002   0.001660  -0.000788  -0.008170   0.040336
 Mulliken atomic spin densities:
              1
     1  O    0.599934
     2  O   -0.010861
     3  C   -0.692046
     4  C    0.745276
     5  C    0.694106
     6  C   -0.091792
     7  C   -0.095217
     8  H   -0.001330
     9  H    0.045336
    10  H   -0.212556
    11  H   -0.043096
    12  H   -0.043756
    13  H    0.024492
    14  H    0.003907
    15  H    0.022593
    16  H    0.004051
    17  H    0.024206
    18  H    0.026752
 Sum of Mulliken atomic spin densities =   1.00000
 APT atomic charges:
              1
     1  O   -0.131323
     2  O   -1.067730
     3  C   -0.591552
     4  C    0.287730
     5  C   -1.064581
     6  C   -1.268457
     7  C   -1.526533
     8  H    0.858039
     9  H    0.488046
    10  H    0.417643
    11  H    0.523412
    12  H    0.377241
    13  H    0.561954
    14  H    0.239545
    15  H    0.449155
    16  H    0.431625
    17  H    0.572539
    18  H    0.443246
 Sum of APT charges=   0.00000
 APT Atomic charges with hydrogens summed into heavy atoms:
              1
     1  O    0.286320
     2  O   -0.209691
     3  C   -0.103507
     4  C    0.287730
     5  C   -0.163927
     6  C   -0.017802
     7  C   -0.079122
     8  H    0.000000
     9  H    0.000000
    10  H    0.000000
    11  H    0.000000
    12  H    0.000000
    13  H    0.000000
    14  H    0.000000
    15  H    0.000000
    16  H    0.000000
    17  H    0.000000
    18  H    0.000000
 Sum of APT charges=   0.00000
 Electronic spatial extent (au):  <R**2>=           1352.2873
 Charge=              0.0000 electrons
 Dipole moment (field-independent basis, Debye):
    X=              0.9045    Y=             -1.5584    Z=             -1.1899  Tot=              2.1593
 Quadrupole moment (field-independent basis, Debye-Ang):
   XX=            -39.5650   YY=            -43.1109   ZZ=            -46.2796
   XY=              6.5751   XZ=              3.7965   YZ=             -0.0125
 Traceless Quadrupole moment (field-independent basis, Debye-Ang):
   XX=              3.4202   YY=             -0.1257   ZZ=             -3.2944
   XY=              6.5751   XZ=              3.7965   YZ=             -0.0125
 Octapole moment (field-independent basis, Debye-Ang**2):
  XXX=            -52.3554  YYY=             -2.7255  ZZZ=              3.2273  XYY=             -7.3909
  XXY=            -20.6259  XXZ=             -5.1906  XZZ=             -6.7315  YZZ=              2.0592
  YYZ=              0.6274  XYZ=             -1.7043
 Hexadecapole moment (field-independent basis, Debye-Ang**3):
 XXXX=          -1125.9305 YYYY=           -239.5247 ZZZZ=           -143.0665 XXXY=             84.9640
 XXXZ=              9.4162 YYYX=             -3.3658 YYYZ=              0.7488 ZZZX=             -1.3511
 ZZZY=              0.0063 XXYY=           -258.7936 XXZZ=           -247.7943 YYZZ=            -63.6156
 XXYZ=              0.6982 YYXZ=              1.4430 ZZXY=              2.5973
 N-N= 2.951070975297D+02 E-N=-2.091061798374D+03  KE= 5.157727211177D+02
  Exact polarizability:   0.000   0.000   0.000   0.000   0.000   0.000
 Approx polarizability:  67.376   1.687  51.121   0.924   1.447  46.086
                          Isotropic Fermi Contact Couplings
        Atom                 a.u.       MegaHertz       Gauss      10(-4) cm-1
     1  O(17)              0.12302     -74.57435     -26.60998     -24.87533
     2  O(17)              0.02183     -13.23417      -4.72228      -4.41444
     3  C(13)             -0.12459    -140.06821     -49.97982     -46.72172
     4  C(13)              0.13231     148.74094      53.07447      49.61464
     5  C(13)              0.16797     188.82523      67.37753      62.98532
     6  C(13)             -0.03023     -33.98861     -12.12798     -11.33738
     7  C(13)             -0.03163     -35.55566     -12.68714     -11.86009
     8  H(1)              -0.00073      -3.25713      -1.16223      -1.08646
     9  H(1)               0.01397      62.44111      22.28054      20.82811
    10  H(1)              -0.08533    -381.43255    -136.10461    -127.23220
    11  H(1)              -0.01425     -63.70101     -22.73010     -21.24837
    12  H(1)              -0.01488     -66.53089     -23.73988     -22.19232
    13  H(1)               0.01096      48.97029      17.47382      16.33473
    14  H(1)               0.00133       5.93087       2.11628       1.97832
    15  H(1)               0.01016      45.41436      16.20497      15.14860
    16  H(1)               0.00138       6.15565       2.19649       2.05330
    17  H(1)               0.01081      48.31086      17.23852      16.11477
    18  H(1)               0.01182      52.83533      18.85296      17.62397
 --------------------------------------------------------
       Center         ----  Spin Dipole Couplings  ----
                      3XX-RR        3YY-RR        3ZZ-RR
 --------------------------------------------------------
     1   Atom        0.207988     -0.959107      0.751119
     2   Atom        0.091739     -0.022302     -0.069436
     3   Atom        0.169379      0.214663     -0.384042
     4   Atom       -0.181998     -0.292205      0.474203
     5   Atom       -0.012274     -0.273838      0.286113
     6   Atom        0.006237     -0.008495      0.002258
     7   Atom       -0.006495      0.005101      0.001395
     8   Atom        0.014047     -0.008861     -0.005185
     9   Atom        0.028871     -0.024450     -0.004421
    10   Atom        0.065938     -0.104569      0.038631
    11   Atom       -0.014479      0.018439     -0.003960
    12   Atom       -0.025577      0.021528      0.004049
    13   Atom       -0.003123      0.006568     -0.003444
    14   Atom       -0.001248      0.004335     -0.003087
    15   Atom       -0.001612      0.007698     -0.006086
    16   Atom        0.000270      0.000614     -0.000884
    17   Atom        0.007706     -0.003417     -0.004289
    18   Atom        0.005375     -0.004166     -0.001209
 --------------------------------------------------------
                        XY            XZ            YZ
 --------------------------------------------------------
     1   Atom       -0.657593     -1.618870      0.703829
     2   Atom       -0.055741     -0.276597      0.151366
     3   Atom        0.042646      0.240651     -0.083037
     4   Atom       -0.049059     -0.297087      0.098232
     5   Atom       -0.079316     -0.412704      0.122943
     6   Atom       -0.001573      0.000599      0.000358
     7   Atom       -0.001360     -0.004179     -0.000951
     8   Atom        0.006370      0.010134      0.007148
     9   Atom        0.015190      0.008879      0.011164
    10   Atom       -0.068705     -0.179390      0.063474
    11   Atom        0.028106     -0.003646      0.030850
    12   Atom       -0.009674     -0.011118     -0.028971
    13   Atom        0.002155      0.000533     -0.003409
    14   Atom       -0.000398     -0.000853     -0.002473
    15   Atom        0.001027     -0.000248      0.000972
    16   Atom       -0.005893      0.000868     -0.002458
    17   Atom       -0.003056      0.002856      0.000512
    18   Atom       -0.001575      0.005513     -0.002444
 --------------------------------------------------------


 ---------------------------------------------------------------------------------
              Anisotropic Spin Dipole Couplings in Principal Axis System
 ---------------------------------------------------------------------------------

       Atom             a.u.   MegaHertz   Gauss  10(-4) cm-1        Axes

              Baa    -1.2567    90.937    32.449    30.333  0.4899  0.8670  0.0911
     1 O(17)  Bbb    -1.1401    82.500    29.438    27.519  0.6091 -0.4151  0.6758
              Bcc     2.3969  -173.437   -61.887   -57.852 -0.6237  0.2756  0.7314
 
              Baa    -0.3071    22.222     7.929     7.413  0.5079 -0.3246  0.7979
     2 O(17)  Bbb    -0.0431     3.115     1.112     1.039  0.4753  0.8781  0.0547
              Bcc     0.3502   -25.337    -9.041    -8.452  0.7184 -0.3515 -0.6003
 
              Baa    -0.4863   -65.259   -23.286   -21.768 -0.3491  0.1312  0.9279
     3 C(13)  Bbb     0.2237    30.016    10.711    10.012 -0.2261  0.9491 -0.2192
              Bcc     0.2626    35.243    12.575    11.756  0.9094  0.2863  0.3017
 
              Baa    -0.3124   -41.915   -14.956   -13.981  0.5474  0.8305  0.1030
     4 C(13)  Bbb    -0.2897   -38.879   -13.873   -12.969  0.7563 -0.5436  0.3640
              Bcc     0.6021    80.794    28.829    26.950 -0.3583  0.1213  0.9257
 
              Baa    -0.3060   -41.065   -14.653   -13.698  0.6065 -0.5806  0.5432
     5 C(13)  Bbb    -0.2942   -39.478   -14.087   -13.169  0.5587  0.7973  0.2284
              Bcc     0.6002    80.543    28.740    26.866 -0.5657  0.1650  0.8079
 
              Baa    -0.0087    -1.164    -0.415    -0.388  0.1063  0.9936 -0.0383
     6 C(13)  Bbb     0.0022     0.295     0.105     0.098 -0.1268  0.0518  0.9906
              Bcc     0.0065     0.869     0.310     0.290  0.9862 -0.1005  0.1315
 
              Baa    -0.0085    -1.139    -0.407    -0.380  0.9104  0.1188  0.3962
     7 C(13)  Bbb     0.0031     0.422     0.151     0.141 -0.4110  0.1513  0.8990
              Bcc     0.0053     0.717     0.256     0.239 -0.0469  0.9813 -0.1866
 
              Baa    -0.0145    -7.724    -2.756    -2.576  0.0618  0.7574 -0.6501
     8 H(1)   Bbb    -0.0065    -3.465    -1.236    -1.156 -0.4971  0.5881  0.6379
              Bcc     0.0210    11.189     3.992     3.732  0.8655  0.2837  0.4129
 
              Baa    -0.0314   -16.745    -5.975    -5.586 -0.1864  0.9279 -0.3228
     9 H(1)   Bbb    -0.0048    -2.574    -0.918    -0.859 -0.3487  0.2447  0.9047
              Bcc     0.0362    19.319     6.894     6.444  0.9185  0.2812  0.2780
 
              Baa    -0.1288   -68.733   -24.526   -22.927  0.2631  0.9612 -0.0826
    10 H(1)   Bbb    -0.1276   -68.085   -24.295   -22.711  0.6532 -0.1145  0.7485
              Bcc     0.2564   136.819    48.820    45.638  0.7101 -0.2508 -0.6579
 
              Baa    -0.0420   -22.425    -8.002    -7.480  0.6434 -0.5635  0.5182
    11 H(1)   Bbb    -0.0057    -3.033    -1.082    -1.012 -0.6848 -0.1211  0.7186
              Bcc     0.0477    25.457     9.084     8.492  0.3421  0.8172  0.4638
 
              Baa    -0.0368   -19.622    -7.002    -6.545  0.7957  0.3702  0.4794
    12 H(1)   Bbb    -0.0063    -3.357    -1.198    -1.120 -0.6055  0.4633  0.6471
              Bcc     0.0431    22.980     8.200     7.665 -0.0175  0.8051 -0.5928
 
              Baa    -0.0052    -2.784    -0.993    -0.929 -0.5323  0.3236  0.7822
    13 H(1)   Bbb    -0.0027    -1.457    -0.520    -0.486  0.8291  0.0127  0.5590
              Bcc     0.0079     4.241     1.513     1.415  0.1709  0.9461 -0.2751
 
              Baa    -0.0041    -2.207    -0.787    -0.736  0.3071  0.2800  0.9095
    14 H(1)   Bbb    -0.0010    -0.507    -0.181    -0.169  0.9514 -0.0688 -0.3001
              Bcc     0.0051     2.714     0.968     0.905 -0.0215  0.9575 -0.2875
 
              Baa    -0.0062    -3.296    -1.176    -1.099  0.0708 -0.0749  0.9947
    15 H(1)   Bbb    -0.0017    -0.905    -0.323    -0.302  0.9919 -0.1003 -0.0782
              Bcc     0.0079     4.201     1.499     1.401  0.1056  0.9921  0.0672
 
              Baa    -0.0057    -3.055    -1.090    -1.019  0.6623  0.7093  0.2414
    16 H(1)   Bbb    -0.0013    -0.708    -0.253    -0.236 -0.3749  0.0348  0.9264
              Bcc     0.0071     3.763     1.343     1.255 -0.6487  0.7041 -0.2890
 
              Baa    -0.0057    -3.057    -1.091    -1.020 -0.2920 -0.5578  0.7769
    17 H(1)   Bbb    -0.0033    -1.754    -0.626    -0.585  0.0665  0.7985  0.5983
              Bcc     0.0090     4.811     1.717     1.605  0.9541 -0.2264  0.1961
 
              Baa    -0.0058    -3.115    -1.112    -1.039 -0.2117  0.7375  0.6413
    18 H(1)   Bbb    -0.0032    -1.694    -0.604    -0.565  0.4939  0.6470 -0.5809
              Bcc     0.0090     4.809     1.716     1.604  0.8434 -0.1937  0.5012
 

 ---------------------------------------------------------------------------------

 No NMR shielding tensors so no spin-rotation constants.
 Leave Link  601 at Tue May  1 13:53:56 2018, MaxMem=  671088640 cpu:      17.8
 (Enter /shared/apps/gaussian/G09_LINUX_LINDA/g09/l701.exe)
 Compute integral second derivatives.
 ... and contract with generalized density number  0.
 Leave Link  701 at Tue May  1 13:53:57 2018, MaxMem=  671088640 cpu:      10.4
 (Enter /shared/apps/gaussian/G09_LINUX_LINDA/g09/l702.exe)
 L702 exits ... SP integral derivatives will be done elsewhere.
 Leave Link  702 at Tue May  1 13:53:57 2018, MaxMem=  671088640 cpu:       0.2
 (Enter /shared/apps/gaussian/G09_LINUX_LINDA/g09/l703.exe)
 Compute integral second derivatives, UseDBF=F ICtDFT=           0.
 Integral derivatives from FoFDir, PRISM(SPDF).
 Calling FoFJK, ICntrl=    100147 FMM=F ISym2X=0 I1Cent= 0 IOpClX= 1 NMat=1 NMatS=1 NMatT=0.
 FoFCou: FMM=F IPFlag=           0 FMFlag=      100000 FMFlg1=         800
         NFxFlg=           0 DoJE=F BraDBF=F KetDBF=F FulRan=T
         Omega=  0.000000  0.000000  1.000000  0.000000  0.000000 ICntrl=  100147 IOpCl=  1
         NMat0=    1 NMatS0=    1 NMatT0=    0 NMatD0=    1 NMtDS0=    0 NMtDT0=    0
         I1Cent=           0 NGrid=           0.
 Symmetry not used in FoFCou.
 Leave Link  703 at Tue May  1 13:54:00 2018, MaxMem=  671088640 cpu:      30.4
 (Enter /shared/apps/gaussian/G09_LINUX_LINDA/g09/l716.exe)
 Dipole        = 3.55846981D-01-6.13139855D-01-4.68133526D-01
 Polarizability= 0.00000000D+00 0.00000000D+00 0.00000000D+00
                 0.00000000D+00 0.00000000D+00 0.00000000D+00
 ***** Axes restored to original set *****
 -------------------------------------------------------------------
 Center     Atomic                   Forces (Hartrees/Bohr)
 Number     Number              X              Y              Z
 -------------------------------------------------------------------
      1        8          -0.000026705   -0.000006212   -0.000010528
      2        8          -0.000813595   -0.000600064   -0.000104103
      3        6           0.000032701   -0.000515392    0.000146751
      4        6          -0.000123065    0.000056758   -0.000157358
      5        6           0.000016253   -0.000008250    0.000028403
      6        6           0.000002254    0.000003141   -0.000009127
      7        6           0.000002940    0.000015517    0.000004394
      8        1          -0.000096468    0.000206405    0.000084991
      9        1           0.000026153    0.000023845    0.000009703
     10        1           0.000026053   -0.000005359    0.000037090
     11        1           0.000206015    0.000194737   -0.000088467
     12        1           0.000731612    0.000622837    0.000061865
     13        1           0.000010899   -0.000002152    0.000002725
     14        1          -0.000000369    0.000005375   -0.000009932
     15        1          -0.000000921   -0.000001520    0.000001965
     16        1          -0.000001266    0.000005197   -0.000000438
     17        1           0.000010524   -0.000002313    0.000006350
     18        1          -0.000003014    0.000007449   -0.000004284
 -------------------------------------------------------------------
 Cartesian Forces:  Max     0.000813595 RMS     0.000212780
 Leave Link  716 at Tue May  1 13:54:01 2018, MaxMem=  671088640 cpu:       1.2
 (Enter /shared/apps/gaussian/G09_LINUX_LINDA/g09/l103.exe)

 GradGradGradGradGradGradGradGradGradGradGradGradGradGradGradGradGradGrad
 Berny optimization.
 Red2BG is reusing G-inverse.
 Internal  Forces:  Max     0.002643600 RMS     0.000513905
 Search for a saddle point.
 Step number   1 out of a maximum of   81
 All quantities printed in internal units (Hartrees-Bohrs-Radians)
[...]
 ,-5.8502907,0.2296535,1.1330819,-0.376688,0.976539,-0.1465848,0.605538
 4,-1.1812398,1.1690081,4.2967088,0.3656692,1.9104608,1.7809586,4.04212
 03,0.6755712,2.1477622,0.9027509,2.4321192,3.2914295,7.1281254,2.00626
 89,0.4522266,3.8937593,0.8758957,2.8570473,1.6062257,2.4603196,1.43385
 7,1.1546468,2.3147114,0.7211079,1.2619672,1.1257371,0.5686767,3.808110
 8,1.196311,3.9247352,-2.28526,1.981789,-1.1619328,1.3415972,-0.3903433
 ,-1.0218118,0.7605207,-1.6814588,2.5443984,-0.2743651,1.364452,0.77518
 98,-0.7259797,0.1219888,0.4855801,-1.6994018,1.3439442,0.4530183,0.792
 1553,-1.0429992,-0.7224506,1.9397167,0.7408166,-0.245915,0.0789913,0.1
 21835,-5.4638343,-0.3314045,3.4225279,-3.164214,-0.4554591,0.206457,1.
 3941394,0.431721,-3.2996743,4.4678881,1.7329567,-0.113078,-0.3620704,-
 2.1936551,0.5360927,0.6895122,0.4307465,0.6374935,-1.4937403,0.7519465
 ,-1.9031077,-0.7374207,-1.21589,0.9674705,-0.7312762,2.5299267,-1.9036
 915,-6.4414446,11.5880102,0.5526843,0.0644223,2.6631266,0.1548009,0.64
 31389,1.8915142,2.2699454,0.5718764,0.4064039,1.2856273,0.3247484,3.27
 66227,-0.454019,0.9538852,3.2557038,0.0127481,1.4622545,0.6161397,-1.4
 773416,-0.5828322,1.3320709,0.2643061,-0.2939265,-0.2324459,2.1081267,
 -8.9386733,-0.4326432,2.6418881,-0.8508285,1.9903942,-1.0297999,2.1807
 198,0.9401416,-2.8801206,1.7490369\HyperPolar=-980.7977607,302.7781096
 ,-23.5606145,-4.5439108,-102.5684618,56.3493304,2.6849343,1.0585587,34
 .2997843,-88.9376874\PG=C01 [X(C5H11O2)]\NImag=1\\0.02831599,-0.171956
 97,0.30614092,0.01371605,0.03666049,0.04068912,-0.13097630,0.15739490,
 0.03520103,0.28645406,0.10289188,-0.23513164,-0.06137054,-0.21620052,0
 .24825968,-0.00008323,-0.02292472,-0.06010863,0.16597201,-0.01690732,0
 .56939552,0.06614925,0.01173908,-0.01199269,-0.01124261,0.01628126,0.0
 0199407,0.42588301,-0.03802303,-0.00730556,0.00681554,0.00434311,-0.00
 883218,-0.00087570,-0.24192595,0.35361489,0.03147685,0.00411165,-0.005
 51142,-0.00597504,0.00876463,0.00129202,0.02349674,0.03472478,0.751204
 48,-0.01766020,-0.00353573,0.00331653,0.00291334,-0.00447248,-0.000457
 03,-0.15448819,0.07642991,-0.11376537,0.46506705,0.01724648,0.00377182
 ,-0.00324171,-0.00284239,0.00415022,0.00048669,0.08100468,-0.11547720,
 0.08101011,-0.23225719,0.38659808,-0.03582192,-0.00526526,0.00649036,0
 .00681793,-0.00974677,-0.00124609,-0.07981839,0.04988320,-0.29361372,0
 .07730588,-0.03356629,0.69121926,-0.23755769,-0.04920485,0.04175870,0.
 02908138,-0.05198306,-0.00600211,-0.11238874,0.05437953,0.06272168,-0.
 04763904,0.04225240,-0.06099491,0.18380600,-0.09619812,-0.01923248,0.0
 1651192,0.01418637,-0.01810082,-0.00296231,0.13496170,-0.17258236,-0.0
 1899688,0.01584790,-0.00865595,0.00486374,-0.22894816,0.50201525,0.019
 71747,0.00624037,-0.00108235,-0.00007245,0.00356215,0.00012383,-0.0019
 9409,-0.00459647,-0.12623927,-0.01992171,0.01661320,0.01624349,0.03608
 581,0.02576733,0.68327770,0.00188428,-0.00011463,-0.00024267,-0.000530
 46,0.00077410,0.00012102,0.01031904,-0.00489346,-0.01786972,-0.1019536
 3,0.01970065,0.02446120,0.00029326,-0.00313991,-0.00022624,0.64334265,
 -0.00050039,0.00012926,-0.00013885,0.00015310,-0.00029782,-0.00002673,
 -0.00388304,0.00984979,0.01325406,0.01958646,-0.09960291,-0.02872380,-
 0.00344873,-0.00165769,0.00062797,-0.03605697,0.62911254,-0.00124546,0
 .00016399,0.00017343,0.00036095,-0.00052066,-0.00004757,0.00248901,-0.
 00447713,-0.02524635,0.02424448,-0.02995640,-0.23405957,0.00058681,0.0
 0027300,0.00073627,0.00320005,-0.00574810,0.55511333,-0.00162554,0.000
 09156,0.00035762,0.00053719,-0.00067272,-0.00007674,-0.01340794,0.0175
 1684,0.00068956,-0.17065930,0.07995431,0.01677966,0.00499398,0.0044462
 8,-0.00166975,-0.00244400,0.00603418,0.00454072,0.57611449,-0.00069554
 ,-0.00016549,0.00015212,0.00019307,-0.00019500,-0.00004404,0.01679496,
 -0.00764501,0.00039090,0.07999658,-0.14958654,-0.01798149,0.00419283,0
 .00618237,-0.00007256,0.00738033,-0.00223084,-0.00405298,0.02116559,0.
 58097033,0.00247772,-0.00023767,-0.00042206,-0.00080673,0.00101151,0.0
 0013394,-0.02205953,0.01919716,0.00971551,0.02075937,-0.02025438,-0.11
 104396,0.00049121,0.00092639,-0.00463307,0.02921707,-0.02545896,-0.005
 61569,0.00443138,-0.00030808,0.66826216,-0.02040721,0.01572017,-0.0210
 3857,-0.10879926,0.05995951,-0.17449250,-0.00038762,0.00015515,0.00026
 015,0.00011643,-0.00016388,-0.00001479,0.00067486,0.00042593,-0.001204
 71,0.00000226,0.00000096,-0.00001238,-0.00001228,0.00003533,0.00007899
 ,0.13222307,0.03720234,-0.02614125,0.03527308,0.04383040,-0.04123973,0
 .04044034,-0.00122537,0.00047829,-0.00027735,0.00027525,-0.00030193,0.
 00053212,0.00313819,0.00139423,-0.00106951,-0.00002299,-0.00000207,0.0
 0001893,0.00004463,0.00003630,-0.00002108,-0.07740270,0.06865667,0.010
 88677,-0.01175211,0.02168399,-0.21591982,0.08543582,-0.50555674,0.0019
 3013,-0.00084391,0.00092477,-0.00050183,0.00047301,-0.00112653,-0.0049
 4615,-0.00190139,0.00079295,0.00007868,-0.00002349,-0.00006079,-0.0000
 9023,-0.00002950,0.00013534,0.19945178,-0.07480224,0.48337548,0.002371
 88,0.00016053,-0.00045931,-0.00075712,0.00069515,0.00003684,-0.0777914
 1,0.03612416,0.06415870,0.00921211,-0.00553856,-0.01554588,0.00012422,
 0.01152191,0.02667671,0.00297708,0.00736219,-0.00186473,-0.00262955,-0
 .00391073,-0.00163370,0.00001602,-0.00000858,0.00013326,0.07264363,0.0
 0014891,0.00018974,0.00011708,0.00005017,0.00003045,-0.00001464,0.0347
 0823,-0.07953073,-0.08824487,-0.00153397,0.00698895,0.01525032,0.00610
 661,-0.00541215,-0.02128644,0.00696922,0.00533744,0.00120100,-0.003615
 54,-0.00365626,0.00163191,-0.00004508,0.00000223,-0.00003806,-0.046928
 07,0.07767695,-0.00067842,0.00007882,0.00020043,0.00026067,-0.00025185
 ,-0.00000871,0.06364987,-0.08386105,-0.32295514,0.00898128,-0.01041932
 ,-0.02514091,-0.00169597,0.00098693,0.00156000,-0.00378549,0.00221445,
 -0.00018081,0.00199320,-0.00091502,0.00029126,-0.00002494,-0.00000601,
 -0.00005899,-0.06875745,0.09117132,0.34347207,0.26976682,0.03760156,-0
 .05313522,-0.06192454,0.07968987,0.01222914,-0.11143882,0.05175998,-0.
 04445086,0.02672408,-0.02462564,0.05211112,0.24162010,0.08748091,-0.02
 261002,-0.00267195,0.00022505,0.00135949,0.00257021,0.00186320,-0.0031
 4152,-0.00291516,-0.00517939,0.00770372,-0.00298292,0.00032949,0.00083
 704,-0.30150962,0.12216610,-0.02384521,-0.02574925,0.00305090,0.042384
 84,0.00207072,-0.03676713,0.03749635,-0.02329081,0.01512144,-0.0136288
 4,0.02631545,0.13492422,0.00835837,-0.01164909,-0.00104557,0.00028084,
 0.00049497,0.00030840,-0.00003020,-0.00123142,0.00189223,-0.00255795,0
 .00248486,-0.00200453,-0.00066639,0.00009075,-0.18828969,-0.01254732,-
 0.03996169,-0.00658712,-0.00401664,0.01474761,-0.00984469,-0.00416959,
 0.01268758,-0.00710784,0.00592266,-0.00434556,0.00388845,-0.00667109,-
 0.03574986,-0.01229670,-0.02744619,0.00031013,0.00031869,0.00007600,-0
 .00024624,-0.00009913,0.00029340,-0.00353888,-0.00032683,0.00015053,0.
 00031641,-0.00035105,-0.00028513,0.04743297,0.02763643,0.03908625,0.01
 847605,0.00115748,-0.00355191,-0.00245437,0.00598845,0.00008454,-0.010
 58482,0.02105859,-0.03169281,0.00081026,0.00255490,0.00660435,-0.03486
 747,0.03596713,-0.03383646,-0.00000985,0.00044722,0.00048483,-0.000974
 47,-0.00068444,-0.00111577,-0.00035370,-0.00031483,0.00056599,-0.00015
 332,-0.00196724,0.00035558,-0.02530943,-0.02339850,0.01820127,0.055506
 07,0.01455875,0.00066463,-0.00328345,-0.00266916,0.00480549,0.00030987
 ,-0.00523377,-0.00311743,0.01695012,0.00582253,-0.00389251,0.00154357,
 0.05222907,-0.13632332,0.13059558,0.00010868,-0.00006595,-0.00074766,0
 .00057065,0.00053942,0.00082813,-0.00027622,-0.00013232,0.00058400,-0.
 00101063,0.00000787,-0.00031706,-0.02015305,-0.01758162,0.01357578,-0.
 03960592,0.14063947,0.00108778,0.00044642,0.00070694,0.00020531,-0.000
 61386,0.00006297,0.00121573,-0.00355636,0.00528023,0.00162276,-0.00060
 296,0.00100703,-0.04163901,0.12926004,-0.27527797,0.00054189,-0.000088
 95,-0.00029732,0.00011016,0.00002944,0.00011082,0.00043042,0.00026523,
 -0.00010031,-0.00078162,-0.00010368,0.00130824,-0.00178858,0.00068994,
 -0.00221323,0.04339680,-0.14273706,0.28840214,0.01888651,0.00125598,-0
 .00346721,-0.00147733,0.00609128,0.00055990,-0.00624020,0.02029145,0.0
 2301422,0.00285656,-0.00390030,0.00502929,-0.02858535,0.02099331,0.001
 79019,-0.00038819,0.00017579,-0.00039499,-0.00046981,-0.00048499,-0.00
 011573,-0.00028512,-0.00032236,0.00057846,-0.00276099,0.00567100,-0.00
 016955,-0.02912789,-0.02483155,-0.01030882,0.00031662,-0.00405609,-0.0
 0358279,0.04700248,0.01458620,0.00073653,-0.00225908,-0.00198819,0.004
 72071,0.00051477,-0.00904425,-0.00272748,-0.02146111,0.00164910,-0.001
 40108,0.00286083,0.03665191,-0.15376255,-0.14720925,0.00081605,-0.0008
 3029,-0.00015441,0.00022989,0.00023040,0.00019792,-0.00019271,-0.00020
 231,0.00049810,0.00347280,-0.00088428,0.00045106,-0.02228380,-0.018320
 91,-0.00821035,-0.00152030,0.01439053,0.01643371,-0.02155969,0.1572954
 2,-0.00390045,-0.00071880,0.00144602,-0.00012874,-0.00038375,-0.000053
 56,0.00467897,-0.00164014,0.00387938,-0.00075136,0.00133830,-0.0020063
 3,0.00742911,-0.14238973,-0.26822352,-0.00031626,0.00014953,-0.0009500
 1,0.00005524,-0.00009768,0.00007921,0.00004114,0.00001381,-0.00022785,
 -0.00094710,-0.00057851,0.00124180,0.00644275,0.00315210,-0.00084651,0
 .00070591,-0.01747790,-0.01934823,-0.01116313,0.15622755,0.28638918,0.
 00004465,0.00003078,-0.00012287,-0.00005727,0.00005249,-0.00002992,-0.
 00004748,-0.00052197,0.00086341,0.00854950,0.00467758,0.00118995,0.000
 15141,0.00059035,0.00007844,-0.24474070,-0.08923313,-0.09242160,0.0002
 1596,0.00013209,-0.00010458,0.00002515,-0.00001362,0.00001671,-0.00030
 075,-0.00048342,-0.00001736,-0.00004284,-0.00015374,0.00017856,0.00000
 492,-0.00005646,-0.00015570,-0.00010483,-0.00037067,-0.00025569,0.2636
 8235,0.00033961,-0.00008477,-0.00002913,-0.00014094,0.00019013,0.00001
 124,0.00103649,-0.00082896,0.00032324,-0.00447802,-0.00053335,-0.00209
 076,0.00005327,-0.00041947,-0.00002361,-0.08963159,-0.10232657,-0.0482
 9163,-0.00050501,-0.00001293,-0.00000622,0.00000957,-0.00000178,0.0000
 2604,-0.00000440,0.00019960,-0.00010572,-0.00038662,-0.00007992,-0.000
 03758,-0.00005604,0.00009074,0.00008929,0.00006040,0.00024864,0.000189
 24,0.10128903,0.10403894,0.00157049,-0.00012930,-0.00025482,-0.0004861
 1,0.00062819,0.00008173,0.00284338,-0.00280441,-0.00261617,-0.03266053
 ,-0.01264157,-0.01957876,0.00079239,-0.00056448,0.00000838,-0.09540561
 ,-0.04982625,-0.10331961,-0.00085547,0.00093433,0.00105767,0.00004318,
 -0.00002516,0.00007346,0.00098965,0.00210343,-0.00117437,-0.00195705,-
 0.00079618,0.00024849,-0.00017349,0.00005750,0.00003818,-0.00017928,0.
 00003325,0.00006843,0.10388740,0.05280927,0.11354395,0.00000824,-0.000
 02033,0.00009836,-0.00000339,-0.00002587,0.00000067,-0.00057337,0.0002
 7508,-0.00031650,-0.00295575,0.00120296,0.00025540,-0.00029963,0.00129
 934,-0.00091001,-0.23436379,0.14342325,0.03142279,0.00104203,-0.000057
 90,0.00133684,0.00001153,0.00002355,-0.00000287,0.00005809,-0.00007563
 ,0.00009928,0.00005200,0.00001405,-0.00006133,0.00006549,-0.00038854,-
 0.00042056,0.00016494,0.00000182,-0.00203194,-0.02180145,0.01979491,0.
 00394565,0.24978475,0.00079331,-0.00008615,0.00008737,-0.00018164,0.00
 025608,0.00007461,0.00028313,-0.00021605,0.00026187,0.00310234,-0.0044
 3452,-0.00017721,0.00097487,-0.00059299,0.00087670,0.14278300,-0.17534
 993,-0.02594779,-0.00021312,0.00076878,-0.00180134,-0.00000391,-0.0000
 0293,0.00001081,-0.00011180,-0.00003294,-0.00005343,-0.00099082,-0.000
 33471,-0.00022846,-0.00021047,0.00013706,0.00025600,0.00075676,0.00011
 356,0.00237207,-0.01261847,0.01252618,0.00340173,-0.16054943,0.1855122
 5,-0.00038895,-0.00000868,0.00016048,0.00014522,-0.00014366,-0.0000120
 7,0.00025045,0.00005658,0.00241313,0.03041944,-0.02486933,0.00008794,-
 0.00106268,-0.00019541,-0.00115082,0.02774272,-0.02309155,-0.06583648,
 -0.00050540,0.00014150,-0.00763318,-0.00003582,-0.00000262,-0.00002515
 ,0.00008895,-0.00009223,0.00048578,0.00037902,0.00041892,-0.00021173,0
 .00007258,0.00025026,0.00037337,-0.00113121,0.00177855,-0.00175469,-0.
 01096378,0.01147419,0.00205596,-0.03082463,0.02531246,0.06845464,-0.00
 003913,-0.00000170,0.00004336,0.00002386,-0.00006712,0.00002839,-0.000
 92293,0.00072710,0.00008639,-0.00001246,-0.00410535,0.00180514,0.00004
 829,0.00036956,-0.00029699,-0.06897245,-0.04700364,0.02974782,0.000077
 57,-0.00042549,0.00009196,0.00000830,0.00000645,-0.00001757,0.00020861
 ,0.00004066,0.00000802,0.00007732,0.00005033,-0.00000878,-0.00006766,-
 0.00020012,-0.00023927,0.00023263,-0.00040768,0.00009540,-0.00619432,-
 0.02799903,0.01616216,0.00830446,0.02557078,-0.01562475,0.06719852,-0.
 00074633,0.00004312,0.00009956,0.00021635,-0.00023193,-0.00005597,-0.0
 0018199,-0.00040782,-0.00110953,0.00315286,0.01020597,-0.00361380,-0.0
 0039290,-0.00041671,0.00011877,-0.04667488,-0.26046669,0.11537272,0.00
 010701,0.00025354,-0.00002201,-0.00003528,-0.00000161,-0.00002254,-0.0
 0056654,-0.00042272,0.00001277,0.00087696,0.00036349,-0.00009693,0.000
 07447,0.00016709,0.00018707,-0.00017418,0.00038826,-0.00004438,-0.0031
 1385,-0.01312829,0.00666663,-0.00539780,-0.01884550,0.01030288,0.05308
 177,0.28188264,0.00137250,-0.00018618,-0.00022658,-0.00040554,0.000532
 93,0.00010313,0.00321748,-0.00260443,-0.00279711,0.00457806,0.03297433
 ,-0.02250083,0.00185566,0.00047820,-0.00000433,0.03082950,0.11773292,-
 0.12220091,-0.00091484,0.00085866,0.00122807,0.00005147,-0.00001833,0.
 00005413,-0.00206078,-0.00124269,-0.00089841,-0.00165320,-0.00062717,0
 .00012865,-0.00017096,0.00001672,-0.00002662,-0.00013209,0.00010359,0.
 00022225,-0.00224287,-0.01418439,0.00933522,-0.00236541,-0.00458386,0.
 00272832,-0.03205097,-0.12770045,0.13436404,-0.00008521,-0.00005543,-0
 .00002093,0.00001398,-0.00001350,-0.00001317,0.00145533,-0.00126135,0.
 00191441,-0.00294819,0.00263057,0.02866356,-0.00032043,-0.00026451,-0.
 00010217,-0.00407023,0.00415654,-0.00074723,-0.06447768,0.00604474,0.0
 3429269,-0.00000459,0.00000406,0.00000580,-0.00028605,0.00054977,-0.00
 093608,0.00012995,0.00014527,0.00002270,0.00007686,0.00001094,-0.00002
 559,0.00017583,-0.00012006,-0.00001809,0.00034165,0.00022623,0.0002013
 3,0.00000313,0.00063217,0.00168748,0.00006724,-0.00010865,-0.00053614,
 0.06457742,0.00018947,0.00004345,-0.00001619,-0.00003507,0.00003500,0.
 00001430,-0.00175265,0.00085302,-0.00161174,0.00143728,-0.00383395,-0.
 02520863,0.00026279,0.00012504,0.00008324,0.00440284,-0.00288097,0.000
 75381,0.00626327,-0.06624015,-0.04176897,0.00000331,0.00000306,0.00000
 012,0.00057891,0.00003373,0.00082024,-0.00030827,-0.00016744,0.0000172
 2,-0.00004254,-0.00002804,0.00002895,-0.00012582,0.00008264,0.00001094
 ,-0.00007573,0.00014632,0.00054501,0.00048836,0.00004009,-0.00154700,0
 .00011436,0.00037982,-0.00026695,-0.01058704,0.06559244,-0.00031441,0.
 00005938,0.00010117,0.00011138,-0.00014177,0.00000024,-0.00198529,0.00
 155654,-0.00034677,-0.00019454,-0.00000220,-0.00466140,0.00004732,-0.0
 0008586,0.00064449,0.00145500,-0.00119784,0.00123987,0.03825623,-0.045
 18162,-0.33758148,-0.00001336,0.00000240,-0.00002946,-0.00031107,0.000
 37318,0.00129302,0.00036768,0.00011534,-0.00008524,0.00008204,-0.00006
 606,0.00001887,-0.00014375,0.00014949,0.00004395,-0.00012946,0.0001764
 1,0.00023857,0.00002433,-0.00009865,-0.00046410,-0.00021907,0.00008030
 ,0.00033719,-0.03979584,0.04798340,0.36528960,0.00122666,-0.00015495,-
 0.00021843,-0.00042554,0.00054409,0.00005286,-0.00196827,0.00148698,0.
 00341432,-0.02337880,-0.00581144,-0.01345058,0.00153524,0.00131994,-0.
 00098018,0.00066972,-0.00067245,-0.00092289,-0.26252766,-0.08311068,-0
 .09085007,0.00005702,-0.00001683,0.00006913,-0.00047023,-0.00061947,0.
 00005999,-0.00130169,-0.00070805,0.00017683,-0.00042636,0.00033108,0.0
 0004869,-0.00023052,0.00011475,0.00004062,0.00034330,0.00053946,0.0011
 3410,0.00055174,0.00027425,0.00005521,-0.00004513,-0.00000795,0.000033
 99,0.00685304,0.00245812,0.00136607,0.28582704,-0.00041722,0.00007948,
 0.00007335,0.00012911,-0.00016654,-0.00001911,0.00196465,-0.00190730,-
 0.00184396,0.02499477,0.00942707,0.01261123,-0.00113088,-0.00141139,0.
 00085233,-0.00075963,0.00058149,0.00064370,-0.08044342,-0.08744036,-0.
 03863459,-0.00002284,-0.00000290,-0.00002200,0.00058535,0.00055979,0.0
 0003391,0.00033060,0.00025689,-0.00006206,0.00038150,-0.00025952,-0.00
 000121,0.00012477,-0.00004904,-0.00005130,-0.00011027,-0.00001392,-0.0
 0041515,-0.00021507,-0.00001508,0.00033836,-0.00015352,-0.00010946,-0.
 00014746,-0.00357326,-0.00227024,-0.00150200,0.08802862,0.09409428,-0.
 00005015,0.00003864,0.00000681,0.00000855,-0.00002545,-0.00000034,-0.0
 0034015,-0.00010552,-0.00074740,0.00478104,0.00402694,0.00308297,0.000
 09516,0.00021617,0.00045259,0.00016695,0.00029770,0.00023617,-0.090181
 46,-0.03886098,-0.10121389,0.00000583,-0.00000397,-0.00000514,-0.00033
 043,-0.00030127,0.00048226,0.00007384,-0.00004811,-0.00001745,0.000015
 94,-0.00005362,-0.00002471,-0.00012860,0.00006255,-0.00001845,0.000161
 75,-0.00024941,0.00014300,-0.00011696,0.00013077,0.00015358,0.00010677
 ,-0.00000301,0.00004507,-0.03254138,-0.01298447,-0.01205250,0.10255895
 ,0.04233538,0.10195609,0.00122095,-0.00010744,-0.00024183,-0.00037564,
 0.00046721,0.00007526,-0.00232424,0.00207788,0.00197388,0.00544622,0.0
 2802023,-0.01537700,-0.00067039,-0.00085995,-0.00052383,0.00065695,-0.
 00076639,-0.00082766,-0.06632321,-0.04842896,0.02665042,0.00003031,-0.
 00001822,0.00005803,0.00052070,0.00069436,-0.00017967,-0.00171561,-0.0
 0047419,0.00014709,-0.00005483,0.00001825,-0.00002643,0.00003467,-0.00
 003517,0.00002361,-0.00006925,-0.00014731,0.00014780,-0.00004903,-0.00
 029095,-0.00030387,0.00000727,-0.00010907,0.00059416,-0.00150205,-0.00
 327159,0.00139673,-0.00628955,-0.02971325,0.01571436,0.07145672,-0.001
 58545,0.00019361,0.00029768,0.00051042,-0.00063693,-0.00009197,0.00123
 996,-0.00171427,-0.00295513,-0.00113903,-0.01979334,0.01251354,-0.0000
 5710,0.00049261,0.00056929,-0.00059523,0.00042036,0.00097461,-0.051282
 80,-0.27177835,0.10595170,-0.00005953,0.00001601,-0.00007753,-0.000417
 17,-0.00042127,0.00006922,0.00205964,0.00061973,-0.00018782,0.00017057
 ,-0.00004159,0.00001799,0.00003424,-0.00002877,-0.00007136,-0.00002098
 ,-0.00001058,0.00002317,0.00020727,0.00055680,-0.00012323,0.00040263,0
 .00034681,-0.00113545,0.00158350,0.00808618,-0.00222043,-0.00399548,-0
 .01135324,0.00552766,0.05294455,0.29504625,0.00013907,0.00001010,-0.00
 003625,-0.00003623,0.00001507,0.00000992,-0.00026328,0.00023917,-0.000
 55884,-0.00341091,-0.00525685,0.00351813,0.00022684,0.00010905,0.00021
 781,-0.00027822,-0.00027083,0.00024005,0.02732635,0.10513613,-0.113164
 06,0.00001297,0.00000719,0.00000030,0.00029155,0.00040520,0.00036760,-
 0.00020032,-0.00007745,0.00005680,-0.00002841,-0.00002872,-0.00002040,
 -0.00005490,-0.00001718,0.00005894,0.00006760,-0.00008049,0.00005069,-
 0.00013311,0.00010634,0.00017500,0.00028198,-0.00017209,0.00010871,0.0
 0794867,0.03314672,-0.01398602,-0.00258860,-0.01418944,0.00752134,-0.0
 2930107,-0.11908192,0.11544026\\-0.00000583,0.00000454,-0.00001424,-0.
 00000157,-0.00000109,0.00000068,-0.00000059,0.00000050,-0.00000095,-0.
 00000003,-0.00000029,0.00000024,0.00000061,0.00000549,-0.00001208,-0.0
 0000005,0.00000005,0.00000006,-0.00000010,-0.00000011,-0.00000003,-0.0
 0000002,0.00000018,-0.00000004,0.00000014,-0.00000008,0.,0.00000749,-0
 .00000906,0.00002709,-0.00000043,0.00000034,0.00000013,0.00000043,-0.0
 0000053,-0.00000077,-0.00000008,0.00000018,-0.00000006,-0.00000015,-0.
 00000009,-0.00000006,0.00000019,-0.00000005,0.00000001,-0.00000001,-0.
 00000001,0.,0.,0.00000001,0.,0.,0.,0.00000002\\\@


 The lyf so short, the craft so long to lerne.
                             -- Chaucer
 Job cpu time:  0 days  0 hours 11 minutes  0.5 seconds.
 File lengths (MBytes):  RWF=    136 Int=      0 D2E=      0 Chk=      3 Scr=      1
 Normal termination of Gaussian 09 at Tue May  1 13:57:52 2018.
