 Entering Gaussian System, Link 0=g09
 Initial command:
 /shared/apps/gaussian/G09_LINUX_LINDA/g09/l1.exe /home/harms.n/Code/AutoTST/ipython_notebooks/Gau-35566.inp -scrdir=/home/harms.n/Code/AutoTST/ipython_notebooks/
 Entering Link 1 = /shared/apps/gaussian/G09_LINUX_LINDA/g09/l1.exe PID=     35567.
  
 Copyright (c) 1988,1990,1992,1993,1995,1998,2003,2009,2010,
            Gaussian, Inc.  All Rights Reserved.
  
 This is part of the Gaussian(R) 09 program.  It is based on
 the Gaussian(R) 03 system (copyright 2003, Gaussian, Inc.),
 the Gaussian(R) 98 system (copyright 1998, Gaussian, Inc.),
 the Gaussian(R) 94 system (copyright 1995, Gaussian, Inc.),
 the Gaussian 92(TM) system (copyright 1992, Gaussian, Inc.),
 the Gaussian 90(TM) system (copyright 1990, Gaussian, Inc.),
 the Gaussian 88(TM) system (copyright 1988, Gaussian, Inc.),
 the Gaussian 86(TM) system (copyright 1986, Carnegie Mellon
 University), and the Gaussian 82(TM) system (copyright 1983,
 Carnegie Mellon University). Gaussian is a federally registered
 trademark of Gaussian, Inc.
  
 This software contains proprietary and confidential information,
 including trade secrets, belonging to Gaussian, Inc.
  
 This software is provided under written license and may be
 used, copied, transmitted, or stored only in accord with that
 written license.
  
 The following legend is applicable only to US Government
 contracts under FAR:
  
                    RESTRICTED RIGHTS LEGEND
  
 Use, reproduction and disclosure by the US Government is
 subject to restrictions as set forth in subparagraphs (a)
 and (c) of the Commercial Computer Software - Restricted
 Rights clause in FAR 52.227-19.
  
 Gaussian, Inc.
 340 Quinnipiac St., Bldg. 40, Wallingford CT 06492
  
  
 ---------------------------------------------------------------
 Warning -- This program may not be used in any manner that
 competes with the business of Gaussian, Inc. or will provide
 assistance to any competitor of Gaussian, Inc.  The licensee
 of this program is prohibited from giving any competitor of
 Gaussian, Inc. access to this program.  By using this program,
 the user acknowledges that Gaussian, Inc. is engaged in the
 business of creating and licensing software in the field of
 computational chemistry and represents and warrants to the
 licensee that it is not a competitor of Gaussian, Inc. and that
 it will not use this program in any manner prohibited above.
 ---------------------------------------------------------------
  

 Cite this work as:
 Gaussian 09, Revision B.01,
 M. J. Frisch, G. W. Trucks, H. B. Schlegel, G. E. Scuseria, 
 M. A. Robb, J. R. Cheeseman, G. Scalmani, V. Barone, B. Mennucci, 
 G. A. Petersson, H. Nakatsuji, M. Caricato, X. Li, H. P. Hratchian, 
 A. F. Izmaylov, J. Bloino, G. Zheng, J. L. Sonnenberg, M. Hada, 
 M. Ehara, K. Toyota, R. Fukuda, J. Hasegawa, M. Ishida, T. Nakajima, 
 Y. Honda, O. Kitao, H. Nakai, T. Vreven, J. A. Montgomery, Jr., 
 J. E. Peralta, F. Ogliaro, M. Bearpark, J. J. Heyd, E. Brothers, 
 K. N. Kudin, V. N. Staroverov, T. Keith, R. Kobayashi, J. Normand, 
 K. Raghavachari, A. Rendell, J. C. Burant, S. S. Iyengar, J. Tomasi, 
 M. Cossi, N. Rega, J. M. Millam, M. Klene, J. E. Knox, J. B. Cross, 
 V. Bakken, C. Adamo, J. Jaramillo, R. Gomperts, R. E. Stratmann, 
 O. Yazyev, A. J. Austin, R. Cammi, C. Pomelli, J. W. Ochterski, 
 R. L. Martin, K. Morokuma, V. G. Zakrzewski, G. A. Voth, 
 P. Salvador, J. J. Dannenberg, S. Dapprich, A. D. Daniels, 
 O. Farkas, J. B. Foresman, J. V. Ortiz, J. Cioslowski, 
 and D. J. Fox, Gaussian, Inc., Wallingford CT, 2010.
 
 ******************************************
 Gaussian 09:  EM64L-G09RevB.01 12-Aug-2010
                 1-May-2018 
 ******************************************
 %nprocshared=20
 Will use up to   20 processors via shared memory.
 %mem=5GB
 --------------------------
 #p hf/6-31g* irc=(calcall)
 --------------------------
 1/10=4,18=10,38=1,44=3,71=1/1,23;
 2/12=2,17=6,18=5,29=1,40=1/2;
 3/5=1,6=6,7=1,11=9,16=1,25=1,30=1,71=2/1,2,3;
 4//1;
 5/5=2,38=5/2;
 8/6=4,10=90,11=11/1;
 11/6=1,8=1,9=11,15=111,16=1/1,2,10;
 10/6=1/2;
 6/7=2,8=2,9=2,10=2,18=1,28=1/1;
 7/10=1,25=1/1,2,3,16;
 1/10=4,18=10,44=3,71=1/23(3);
 2/29=1/2;
 7/8=1,9=1,25=1,44=-1/16;
 99/5=20/99;
 2/29=1/2;
 3/5=1,6=6,7=1,11=9,16=1,25=1,30=1,71=2/1,2,3;
 4/5=5,16=3/1;
 5/5=2,38=5/2;
 8/6=4,10=90,11=11/1;
 11/6=1,8=1,9=11,15=111,16=1/1,2,10;
 10/6=1/2;
 7/10=1,25=1/1,2,3,16;
 1/10=4,18=10,44=3,71=1/23(-8);
 2/29=1/2;
 6/7=2,8=2,9=2,10=2,18=1,19=2,28=1/1;
 7/8=1,9=1,25=1,44=-1/16;
 99/5=20/99;
 Leave Link    1 at Tue May  1 13:57:53 2018, MaxMem=  671088640 cpu:       1.0
 (Enter /shared/apps/gaussian/G09_LINUX_LINDA/g09/l101.exe)
 ------------------------------
 Gaussian input prepared by ASE
 ------------------------------
 Symbolic Z-matrix:
 Charge =  0 Multiplicity = 2
 O                    -3.1136    0.13591  -0.73517 
 O                    -3.94855   1.18904  -0.47583 
 C                     0.22523   0.40372  -1.08033 
 C                     0.92005  -0.1405   -0.04723 
 C                    -0.8861    1.34229  -0.99666 
 C                     0.66164   0.1623    1.40647 
 C                     2.03476  -1.12281  -0.3038 
 H                    -4.34657   1.37237  -1.31879 
 H                     0.48356   0.07694  -2.07435 
 H                    -2.00145   0.66341  -0.89022 
 H                    -1.06903   1.90927  -1.89855 
 H                    -0.95623   1.95634  -0.11252 
 H                     1.54543   0.59655   1.86873 
 H                    -0.16689   0.83889   1.56194 
 H                     0.4415   -0.75536   1.94632 
 H                     2.18484  -1.29875  -1.36247 
 H                     2.97211  -0.76289   0.11471 
 H                     1.82419  -2.07866   0.17072 
 
 NAtoms=     18 NQM=     18 NQMF=      0 NMic=      0 NMicF=      0 NTot=     18.
                    Isotopes and Nuclear Properties:
 (Nuclear quadrupole moments (NQMom) in fm**2, nuclear magnetic moments (NMagM)
  in nuclear magnetons)

  Atom         1           2           3           4           5           6           7           8           9          10
 IAtWgt=          16          16          12          12          12          12          12           1           1           1
 AtmWgt=  15.9949146  15.9949146  12.0000000  12.0000000  12.0000000  12.0000000  12.0000000   1.0078250   1.0078250   1.0078250
 NucSpn=           0           0           0           0           0           0           0           1           1           1
 AtZEff=   0.0000000   0.0000000   0.0000000   0.0000000   0.0000000   0.0000000   0.0000000   0.0000000   0.0000000   0.0000000
 NQMom=    0.0000000   0.0000000   0.0000000   0.0000000   0.0000000   0.0000000   0.0000000   0.0000000   0.0000000   0.0000000
 NMagM=    0.0000000   0.0000000   0.0000000   0.0000000   0.0000000   0.0000000   0.0000000   2.7928460   2.7928460   2.7928460

  Atom        11          12          13          14          15          16          17          18
 IAtWgt=           1           1           1           1           1           1           1           1
 AtmWgt=   1.0078250   1.0078250   1.0078250   1.0078250   1.0078250   1.0078250   1.0078250   1.0078250
 NucSpn=           1           1           1           1           1           1           1           1
 AtZEff=   0.0000000   0.0000000   0.0000000   0.0000000   0.0000000   0.0000000   0.0000000   0.0000000
 NQMom=    0.0000000   0.0000000   0.0000000   0.0000000   0.0000000   0.0000000   0.0000000   0.0000000
 NMagM=    2.7928460   2.7928460   2.7928460   2.7928460   2.7928460   2.7928460   2.7928460   2.7928460
 Leave Link  101 at Tue May  1 13:57:53 2018, MaxMem=  671088640 cpu:       1.0
 (Enter /shared/apps/gaussian/G09_LINUX_LINDA/g09/l123.exe)
 IRC-IRC-IRC-IRC-IRC-IRC-IRC-IRC-IRC-IRC-IRC-IRC-IRC-IRC-IRC-IRC-IRC-IRC
 ------------------------------------------------------------------------
 INPUT DATA FOR L123
 ------------------------------------------------------------------------
 GENERAL PARAMETERS:
 Follow reaction path in both directions.
 Maximum points per path      =  10
 Step size                    =   0.100 bohr
 Integration scheme           = HPC                                 
    Redo corrector integration= Yes                                 
    Max correction cycles     =  20
 Initial Hessian              = CalcFC
 Hessian evaluation           = Full Hessian always
 ------------------------------------------------------------------------
 IRC-IRC-IRC-IRC-IRC-IRC-IRC-IRC-IRC-IRC-IRC-IRC-IRC-IRC-IRC-IRC-IRC-IRC
 Leave Link  123 at Tue May  1 13:57:53 2018, MaxMem=  671088640 cpu:       0.0
 (Enter /shared/apps/gaussian/G09_LINUX_LINDA/g09/l202.exe)
                          Input orientation:                          
 ---------------------------------------------------------------------
 Center     Atomic      Atomic             Coordinates (Angstroms)
 Number     Number       Type             X           Y           Z
 ---------------------------------------------------------------------
      1          8           0       -3.113600    0.135911   -0.735173
      2          8           0       -3.948548    1.189040   -0.475830
      3          6           0        0.225230    0.403720   -1.080333
      4          6           0        0.920049   -0.140498   -0.047228
      5          6           0       -0.886096    1.342288   -0.996665
      6          6           0        0.661640    0.162299    1.406465
      7          6           0        2.034764   -1.122807   -0.303804
      8          1           0       -4.346571    1.372366   -1.318793
      9          1           0        0.483557    0.076935   -2.074351
     10          1           0       -2.001449    0.663408   -0.890224
     11          1           0       -1.069031    1.909273   -1.898545
     12          1           0       -0.956230    1.956335   -0.112518
     13          1           0        1.545431    0.596545    1.868729
     14          1           0       -0.166891    0.838891    1.561937
     15          1           0        0.441502   -0.755362    1.946322
     16          1           0        2.184843   -1.298753   -1.362465
     17          1           0        2.972110   -0.762893    0.114708
     18          1           0        1.824194   -2.078661    0.170719
 ---------------------------------------------------------------------
                    Distance matrix (angstroms):
                    1          2          3          4          5
     1  O    0.000000
     2  O    1.368750   0.000000
     3  C    3.367290   4.289822   0.000000
     4  C    4.101219   5.065037   1.358768   0.000000
     5  C    2.546664   3.110203   1.457036   2.522349   0.000000
     6  C    4.340478   5.084394   2.536317   1.507211   3.092393
     7  C    5.317528   6.416717   2.491525   1.507764   3.884350
     8  H    1.841100   0.950062   4.679369   5.625203   3.475565
     9  H    3.838804   4.841033   1.077772   2.084953   2.153711
    10  H    1.240635   2.058933   2.249817   3.145164   1.310045
    11  H    2.945931   3.291576   2.147387   3.403730   1.080891
    12  H    2.890656   3.110419   2.177872   2.814498   1.078745
    13  H    5.357151   6.002650   3.236832   2.145980   3.831310
    14  H    3.801840   4.309991   2.706423   2.174869   2.705016
    15  H    4.541315   5.377738   3.248213   2.140399   3.850172
    16  H    5.524966   6.677853   2.611148   2.161274   4.066887
    17  H    6.210154   7.214865   3.214725   2.150478   4.533507
    18  H    5.486965   6.664866   3.206873   2.149757   4.517892
                    6          7          8          9         10
     6  C    0.000000
     7  C    2.542044   0.000000
     8  H    5.828677   6.926581   0.000000
     9  H    3.486413   2.642056   5.057582   0.000000
    10  H    3.552173   4.452580   2.487145   2.814491   0.000000
    11  H    4.119494   4.622797   3.371446   2.408090   1.854263
    12  H    2.853661   4.296947   3.645618   3.074723   1.835476
    13  H    1.087816   2.813454   6.743729   4.116485   4.494068
    14  H    1.080931   3.489489   5.104206   3.771770   3.067490
    15  H    1.087202   2.781469   6.173642   4.106129   4.003363
    16  H    3.481636   1.083625   7.056638   2.300798   4.647378
    17  H    2.804084   1.087800   7.757406   3.419092   5.270722
    18  H    2.810783   1.087735   7.225412   3.388841   4.824944
                   11         12         13         14         15
    11  H    0.000000
    12  H    1.790205   0.000000
    13  H    4.769803   3.468815   0.000000
    14  H    3.732896   2.162299   1.756388   0.000000
    15  H    4.915791   3.680460   1.747093   1.749153   0.000000
    16  H    4.600707   4.693006   3.800213   4.318831   3.779230
    17  H    5.246378   4.783063   2.638196   3.809660   3.123914
    18  H    5.343802   4.908378   3.180830   3.796316   2.610694
                   16         17         18
    16  H    0.000000
    17  H    1.757549   0.000000
    18  H    1.757548   1.747024   0.000000
 Symmetry turned off by external request.
 Stoichiometry    C5H11O2(2)
 Framework group  C1[X(C5H11O2)]
 Deg. of freedom    48
 Full point group                 C1      NOp   1
 Rotational constants (GHZ):      4.9403035      0.9219531      0.8786516
 Leave Link  202 at Tue May  1 13:57:53 2018, MaxMem=  671088640 cpu:       0.8
 (Enter /shared/apps/gaussian/G09_LINUX_LINDA/g09/l301.exe)
 Standard basis: 6-31G(d) (6D, 7F)
 Ernie: Thresh=  0.10000D-02 Tol=  0.10000D-05 Strict=F.
 Integral buffers will be    131072 words long.
 Raffenetti 2 integral format.
 Two-electron integral symmetry is turned off.
   127 basis functions,   240 primitive gaussians,   127 cartesian basis functions
    29 alpha electrons       28 beta electrons
       nuclear repulsion energy       294.8633817459 Hartrees.
 IExCor=    0 DFT=F Ex=HF Corr=None ExCW=0 ScaHFX=  1.000000
 ScaDFX=  1.000000  1.000000  1.000000  1.000000 ScalE2=  1.000000  1.000000
 IRadAn=      0 IRanWt=     -1 IRanGd=            0 ICorTp=0
 NAtoms=   18 NActive=   18 NUniq=   18 SFac= 1.00D+00 NAtFMM=   50 NAOKFM=F Big=F
 Leave Link  301 at Tue May  1 13:57:53 2018, MaxMem=  671088640 cpu:       0.9
 (Enter /shared/apps/gaussian/G09_LINUX_LINDA/g09/l302.exe)
 NPDir=0 NMtPBC=     1 NCelOv=     1 NCel=       1 NClECP=     1 NCelD=      1
         NCelK=      1 NCelE2=     1 NClLst=     1 CellRange=     0.0.
 One-electron integrals computed using PRISM.
 NBasis=   127 RedAO= T  NBF=   127
 NBsUse=   127 1.00D-06 NBFU=   127
 Leave Link  302 at Tue May  1 13:57:54 2018, MaxMem=  671088640 cpu:       6.8
 (Enter /shared/apps/gaussian/G09_LINUX_LINDA/g09/l303.exe)
 DipDrv:  MaxL=1.
 Leave Link  303 at Tue May  1 13:57:54 2018, MaxMem=  671088640 cpu:       1.8
 (Enter /shared/apps/gaussian/G09_LINUX_LINDA/g09/l401.exe)
 Harris functional with IExCor=  205 diagonalized for initial guess.
 ExpMin= 1.61D-01 ExpMax= 5.48D+03 ExpMxC= 8.25D+02 IAcc=1 IRadAn=         1 AccDes= 0.00D+00
 HarFok:  IExCor=  205 AccDes= 0.00D+00 IRadAn=         1 IDoV= 1
 ScaDFX=  1.000000  1.000000  1.000000  1.000000
 FoFCou: FMM=F IPFlag=           0 FMFlag=      100000 FMFlg1=           0
         NFxFlg=           0 DoJE=T BraDBF=F KetDBF=T FulRan=T
         Omega=  0.000000  0.000000  1.000000  0.000000  0.000000 ICntrl=     500 IOpCl=  0
         NMat0=    1 NMatS0=    1 NMatT0=    0 NMatD0=    1 NMtDS0=    0 NMtDT0=    0
         I1Cent=           4 NGrid=           0.
 Symmetry not used in FoFCou.
 Harris En= -345.811063736811    
 Initial guess <Sx>= 0.0000 <Sy>= 0.0000 <Sz>= 0.5000 <S**2>= 0.7500 S= 0.5000
 Leave Link  401 at Tue May  1 13:57:57 2018, MaxMem=  671088640 cpu:      24.6
 (Enter /shared/apps/gaussian/G09_LINUX_LINDA/g09/l502.exe)
 UHF open shell SCF:
 Requested convergence on RMS density matrix=1.00D-08 within 128 cycles.
 Requested convergence on MAX density matrix=1.00D-06.
 Requested convergence on             energy=1.00D-06.
 No special actions if energy rises.
 Using DIIS extrapolation, IDIIS=  1040.
 Two-electron integral symmetry not used.
 Keep R1 and R2 ints in memory in canonical form, NReq=67190916.
 IEnd=       69871 IEndB=       69871 NGot=   671088640 MDV=   604979126
 LenX=   604979126 LenY=   604962556
 Symmetry not used in FoFDir.
 MinBra= 0 MaxBra= 2 Meth= 1.
 IRaf=       0 NMat=   1 IRICut=       1 DoRegI=T DoRafI=F ISym2E= 0 JSym2E=0.

 Cycle   1  Pass 1  IDiag  1:
 E= -344.867419507047    
 DIIS: error= 5.50D-02 at cycle   1 NSaved=   1.
 NSaved= 1 IEnMin= 1 EnMin= -344.867419507047     IErMin= 1 ErrMin= 5.50D-02
 ErrMax= 5.50D-02 EMaxC= 1.00D-01 BMatC= 2.01D+00 BMatP= 2.01D+00
 IDIUse=3 WtCom= 4.50D-01 WtEn= 5.50D-01
 Coeff-Com:  0.100D+01
 Coeff-En:   0.100D+01
 Coeff:      0.100D+01
 Gap=     0.606 Goal=   None    Shift=    0.000
 Gap=     0.525 Goal=   None    Shift=    0.000
 GapD=    0.525 DampG=2.000 DampE=0.500 DampFc=1.0000 IDamp=-1.
 RMSDP=5.77D-03 MaxDP=1.13D-01              OVMax= 1.86D-01

 Cycle   2  Pass 1  IDiag  1:
 E= -345.185187001072     Delta-E=       -0.317767494025 Rises=F Damp=F
 DIIS: error= 2.04D-02 at cycle   2 NSaved=   2.
 NSaved= 2 IEnMin= 2 EnMin= -345.185187001072     IErMin= 2 ErrMin= 2.04D-02
 ErrMax= 2.04D-02 EMaxC= 1.00D-01 BMatC= 2.27D-01 BMatP= 2.01D+00
 IDIUse=3 WtCom= 7.96D-01 WtEn= 2.04D-01
 Coeff-Com:  0.178D+00 0.822D+00
 Coeff-En:   0.000D+00 0.100D+01
 Coeff:      0.141D+00 0.859D+00
 Gap=     0.580 Goal=   None    Shift=    0.000
 Gap=     0.346 Goal=   None    Shift=    0.000
 RMSDP=2.66D-03 MaxDP=4.18D-02 DE=-3.18D-01 OVMax= 9.26D-02

 Cycle   3  Pass 1  IDiag  1:
 E= -345.241518085744     Delta-E=       -0.056331084672 Rises=F Damp=F
 DIIS: error= 8.97D-03 at cycle   3 NSaved=   3.
 NSaved= 3 IEnMin= 3 EnMin= -345.241518085744     IErMin= 3 ErrMin= 8.97D-03
 ErrMax= 8.97D-03 EMaxC= 1.00D-01 BMatC= 2.01D-02 BMatP= 2.27D-01
 IDIUse=3 WtCom= 9.10D-01 WtEn= 8.97D-02
 Coeff-Com: -0.205D-01 0.153D+00 0.868D+00
 Coeff-En:   0.000D+00 0.000D+00 0.100D+01
 Coeff:     -0.187D-01 0.139D+00 0.880D+00
 Gap=     0.501 Goal=   None    Shift=    0.000
 Gap=     0.352 Goal=   None    Shift=    0.000
 RMSDP=6.96D-04 MaxDP=1.45D-02 DE=-5.63D-02 OVMax= 5.02D-02

 Cycle   4  Pass 1  IDiag  1:
 E= -345.250128723935     Delta-E=       -0.008610638191 Rises=F Damp=F
 DIIS: error= 2.88D-03 at cycle   4 NSaved=   4.
 NSaved= 4 IEnMin= 4 EnMin= -345.250128723935     IErMin= 4 ErrMin= 2.88D-03
 ErrMax= 2.88D-03 EMaxC= 1.00D-01 BMatC= 3.84D-03 BMatP= 2.01D-02
 IDIUse=3 WtCom= 9.71D-01 WtEn= 2.88D-02
 Coeff-Com: -0.735D-02-0.214D-01 0.885D-01 0.940D+00
 Coeff-En:   0.000D+00 0.000D+00 0.000D+00 0.100D+01
 Coeff:     -0.714D-02-0.207D-01 0.860D-01 0.942D+00
 Gap=     0.499 Goal=   None    Shift=    0.000
 Gap=     0.370 Goal=   None    Shift=    0.000
 RMSDP=3.74D-04 MaxDP=1.14D-02 DE=-8.61D-03 OVMax= 2.77D-02

 Cycle   5  Pass 1  IDiag  1:
 E= -345.253112768427     Delta-E=       -0.002984044493 Rises=F Damp=F
 DIIS: error= 2.40D-03 at cycle   5 NSaved=   5.
 NSaved= 5 IEnMin= 5 EnMin= -345.253112768427     IErMin= 5 ErrMin= 2.40D-03
 ErrMax= 2.40D-03 EMaxC= 1.00D-01 BMatC= 1.81D-03 BMatP= 3.84D-03
 IDIUse=3 WtCom= 9.76D-01 WtEn= 2.40D-02
 Coeff-Com:  0.119D-01-0.626D-01-0.410D+00-0.177D+00 0.164D+01
 Coeff-En:   0.000D+00 0.000D+00 0.000D+00 0.000D+00 0.100D+01
 Coeff:      0.116D-01-0.611D-01-0.400D+00-0.172D+00 0.162D+01
 Gap=     0.508 Goal=   None    Shift=    0.000
 Gap=     0.398 Goal=   None    Shift=    0.000
 RMSDP=5.60D-04 MaxDP=1.77D-02 DE=-2.98D-03 OVMax= 3.95D-02

 Cycle   6  Pass 1  IDiag  1:
 E= -345.255765978836     Delta-E=       -0.002653210409 Rises=F Damp=F
 DIIS: error= 1.01D-03 at cycle   6 NSaved=   6.
 NSaved= 6 IEnMin= 6 EnMin= -345.255765978836     IErMin= 6 ErrMin= 1.01D-03
 ErrMax= 1.01D-03 EMaxC= 1.00D-01 BMatC= 4.74D-04 BMatP= 1.81D-03
 IDIUse=3 WtCom= 9.90D-01 WtEn= 1.01D-02
 Coeff-Com:  0.221D-02 0.413D-02-0.303D-01-0.137D+00 0.121D+00 0.104D+01
 Coeff-En:   0.000D+00 0.000D+00 0.000D+00 0.000D+00 0.000D+00 0.100D+01
 Coeff:      0.219D-02 0.409D-02-0.299D-01-0.135D+00 0.120D+00 0.104D+01
 Gap=     0.510 Goal=   None    Shift=    0.000
 Gap=     0.404 Goal=   None    Shift=    0.000
 RMSDP=1.90D-04 MaxDP=4.65D-03 DE=-2.65D-03 OVMax= 1.53D-02

 Cycle   7  Pass 1  IDiag  1:
 E= -345.256353703557     Delta-E=       -0.000587724721 Rises=F Damp=F
 DIIS: error= 8.90D-04 at cycle   7 NSaved=   7.
 NSaved= 7 IEnMin= 7 EnMin= -345.256353703557     IErMin= 7 ErrMin= 8.90D-04
 ErrMax= 8.90D-04 EMaxC= 1.00D-01 BMatC= 2.84D-04 BMatP= 4.74D-04
 IDIUse=3 WtCom= 9.91D-01 WtEn= 8.90D-03
 Coeff-Com: -0.372D-02 0.240D-01 0.137D+00 0.445D-01-0.583D+00 0.171D+00
 Coeff-Com:  0.121D+01
 Coeff-En:   0.000D+00 0.000D+00 0.000D+00 0.000D+00 0.000D+00 0.000D+00
 Coeff-En:   0.100D+01
 Coeff:     -0.369D-02 0.238D-01 0.136D+00 0.441D-01-0.578D+00 0.170D+00
 Coeff:      0.121D+01
 Gap=     0.513 Goal=   None    Shift=    0.000
 Gap=     0.408 Goal=   None    Shift=    0.000
 RMSDP=2.08D-04 MaxDP=5.62D-03 DE=-5.88D-04 OVMax= 1.91D-02

 Cycle   8  Pass 1  IDiag  1:
 E= -345.256887218190     Delta-E=       -0.000533514634 Rises=F Damp=F
 DIIS: error= 7.23D-04 at cycle   8 NSaved=   8.
 NSaved= 8 IEnMin= 8 EnMin= -345.256887218190     IErMin= 8 ErrMin= 7.23D-04
 ErrMax= 7.23D-04 EMaxC= 1.00D-01 BMatC= 1.63D-04 BMatP= 2.84D-04
 IDIUse=3 WtCom= 9.93D-01 WtEn= 7.23D-03
 Coeff-Com:  0.315D-02-0.294D-01-0.139D+00 0.452D-01 0.517D+00-0.766D+00
 Coeff-Com: -0.141D+01 0.278D+01
 Coeff-En:   0.000D+00 0.000D+00 0.000D+00 0.000D+00 0.000D+00 0.000D+00
 Coeff-En:   0.000D+00 0.100D+01
 Coeff:      0.313D-02-0.292D-01-0.138D+00 0.449D-01 0.513D+00-0.760D+00
 Coeff:     -0.140D+01 0.277D+01
 Gap=     0.520 Goal=   None    Shift=    0.000
 Gap=     0.416 Goal=   None    Shift=    0.000
 RMSDP=3.90D-04 MaxDP=1.11D-02 DE=-5.34D-04 OVMax= 3.71D-02

 Cycle   9  Pass 1  IDiag  1:
 E= -345.257551934538     Delta-E=       -0.000664716347 Rises=F Damp=F
 DIIS: error= 4.14D-04 at cycle   9 NSaved=   9.
 NSaved= 9 IEnMin= 9 EnMin= -345.257551934538     IErMin= 9 ErrMin= 4.14D-04
 ErrMax= 4.14D-04 EMaxC= 1.00D-01 BMatC= 4.48D-05 BMatP= 1.63D-04
 IDIUse=3 WtCom= 9.96D-01 WtEn= 4.14D-03
 Coeff-Com:  0.107D-02-0.270D-02-0.275D-01-0.548D-01 0.191D+00 0.148D+00
 Coeff-Com: -0.517D-01-0.101D+01 0.181D+01
 Coeff-En:   0.000D+00 0.000D+00 0.000D+00 0.000D+00 0.000D+00 0.000D+00
 Coeff-En:   0.000D+00 0.000D+00 0.100D+01
 Coeff:      0.107D-02-0.269D-02-0.274D-01-0.545D-01 0.190D+00 0.148D+00
 Coeff:     -0.515D-01-0.101D+01 0.180D+01
 Gap=     0.524 Goal=   None    Shift=    0.000
 Gap=     0.419 Goal=   None    Shift=    0.000
 RMSDP=2.28D-04 MaxDP=6.64D-03 DE=-6.65D-04 OVMax= 2.14D-02

 Cycle  10  Pass 1  IDiag  1:
 E= -345.257714042082     Delta-E=       -0.000162107544 Rises=F Damp=F
 DIIS: error= 1.64D-04 at cycle  10 NSaved=  10.
 NSaved=10 IEnMin=10 EnMin= -345.257714042082     IErMin=10 ErrMin= 1.64D-04
 ErrMax= 1.64D-04 EMaxC= 1.00D-01 BMatC= 6.94D-06 BMatP= 4.48D-05
 IDIUse=3 WtCom= 9.98D-01 WtEn= 1.64D-03
 Coeff-Com: -0.585D-03 0.515D-02 0.267D-01-0.182D-01-0.826D-01 0.127D+00
 Coeff-Com:  0.239D+00-0.363D+00-0.186D+00 0.125D+01
 Coeff-En:   0.000D+00 0.000D+00 0.000D+00 0.000D+00 0.000D+00 0.000D+00
 Coeff-En:   0.000D+00 0.000D+00 0.000D+00 0.100D+01
 Coeff:     -0.584D-03 0.514D-02 0.267D-01-0.181D-01-0.825D-01 0.127D+00
 Coeff:      0.239D+00-0.362D+00-0.185D+00 0.125D+01
 Gap=     0.525 Goal=   None    Shift=    0.000
 Gap=     0.418 Goal=   None    Shift=    0.000
 RMSDP=4.03D-05 MaxDP=1.10D-03 DE=-1.62D-04 OVMax= 3.89D-03

 Cycle  11  Pass 1  IDiag  1:
 E= -345.257725970502     Delta-E=       -0.000011928420 Rises=F Damp=F
 DIIS: error= 1.05D-04 at cycle  11 NSaved=  11.
 NSaved=11 IEnMin=11 EnMin= -345.257725970502     IErMin=11 ErrMin= 1.05D-04
 ErrMax= 1.05D-04 EMaxC= 1.00D-01 BMatC= 2.33D-06 BMatP= 6.94D-06
 IDIUse=3 WtCom= 9.99D-01 WtEn= 1.05D-03
 Coeff-Com: -0.224D-03 0.659D-03 0.754D-02 0.266D-02-0.314D-01-0.239D-01
 Coeff-Com: -0.141D-01 0.214D+00-0.353D+00-0.161D+00 0.136D+01
 Coeff-En:   0.000D+00 0.000D+00 0.000D+00 0.000D+00 0.000D+00 0.000D+00
 Coeff-En:   0.000D+00 0.000D+00 0.000D+00 0.000D+00 0.100D+01
 Coeff:     -0.224D-03 0.658D-03 0.753D-02 0.265D-02-0.314D-01-0.238D-01
 Coeff:     -0.141D-01 0.214D+00-0.353D+00-0.161D+00 0.136D+01
 Gap=     0.526 Goal=   None    Shift=    0.000
 Gap=     0.419 Goal=   None    Shift=    0.000
 RMSDP=2.67D-05 MaxDP=6.67D-04 DE=-1.19D-05 OVMax= 2.63D-03

 Cycle  12  Pass 1  IDiag  1:
 E= -345.257730491296     Delta-E=       -0.000004520794 Rises=F Damp=F
 DIIS: error= 6.74D-05 at cycle  12 NSaved=  12.
 NSaved=12 IEnMin=12 EnMin= -345.257730491296     IErMin=12 ErrMin= 6.74D-05
 ErrMax= 6.74D-05 EMaxC= 1.00D-01 BMatC= 8.24D-07 BMatP= 2.33D-06
 IDIUse=1 WtCom= 1.00D+00 WtEn= 0.00D+00
 Coeff-Com:  0.244D-03-0.149D-02-0.891D-02-0.569D-02 0.469D-01-0.221D-01
 Coeff-Com: -0.537D-01-0.216D-01 0.231D+00-0.272D+00-0.685D+00 0.179D+01
 Coeff:      0.244D-03-0.149D-02-0.891D-02-0.569D-02 0.469D-01-0.221D-01
 Coeff:     -0.537D-01-0.216D-01 0.231D+00-0.272D+00-0.685D+00 0.179D+01
 Gap=     0.526 Goal=   None    Shift=    0.000
 Gap=     0.419 Goal=   None    Shift=    0.000
 RMSDP=1.88D-05 MaxDP=3.32D-04 DE=-4.52D-06 OVMax= 1.87D-03

 Cycle  13  Pass 1  IDiag  1:
 E= -345.257732232806     Delta-E=       -0.000001741510 Rises=F Damp=F
 DIIS: error= 3.24D-05 at cycle  13 NSaved=  13.
 NSaved=13 IEnMin=13 EnMin= -345.257732232806     IErMin=13 ErrMin= 3.24D-05
 ErrMax= 3.24D-05 EMaxC= 1.00D-01 BMatC= 2.41D-07 BMatP= 8.24D-07
 IDIUse=1 WtCom= 1.00D+00 WtEn= 0.00D+00
 Coeff-Com: -0.195D-05 0.200D-03 0.615D-03-0.217D-02 0.373D-02 0.651D-02
 Coeff-Com:  0.250D-01-0.580D-01 0.489D-01 0.128D+00-0.244D+00-0.426D+00
 Coeff-Com:  0.152D+01
 Coeff:     -0.195D-05 0.200D-03 0.615D-03-0.217D-02 0.373D-02 0.651D-02
 Coeff:      0.250D-01-0.580D-01 0.489D-01 0.128D+00-0.244D+00-0.426D+00
 Coeff:      0.152D+01
 Gap=     0.526 Goal=   None    Shift=    0.000
 Gap=     0.419 Goal=   None    Shift=    0.000
 RMSDP=9.44D-06 MaxDP=2.69D-04 DE=-1.74D-06 OVMax= 7.95D-04

 Cycle  14  Pass 1  IDiag  1:
 E= -345.257732679889     Delta-E=       -0.000000447083 Rises=F Damp=F
 DIIS: error= 1.76D-05 at cycle  14 NSaved=  14.
 NSaved=14 IEnMin=14 EnMin= -345.257732679889     IErMin=14 ErrMin= 1.76D-05
 ErrMax= 1.76D-05 EMaxC= 1.00D-01 BMatC= 7.71D-08 BMatP= 2.41D-07
 IDIUse=1 WtCom= 1.00D+00 WtEn= 0.00D+00
 Coeff-Com: -0.578D-04 0.362D-03 0.246D-02 0.106D-03-0.108D-01 0.644D-02
 Coeff-Com:  0.140D-01 0.339D-02-0.678D-01 0.935D-01 0.197D+00-0.602D+00
 Coeff-Com:  0.118D+00 0.125D+01
 Coeff:     -0.578D-04 0.362D-03 0.246D-02 0.106D-03-0.108D-01 0.644D-02
 Coeff:      0.140D-01 0.339D-02-0.678D-01 0.935D-01 0.197D+00-0.602D+00
 Coeff:      0.118D+00 0.125D+01
 Gap=     0.526 Goal=   None    Shift=    0.000
 Gap=     0.419 Goal=   None    Shift=    0.000
 RMSDP=5.32D-06 MaxDP=1.51D-04 DE=-4.47D-07 OVMax= 4.88D-04

 Cycle  15  Pass 1  IDiag  1:
 E= -345.257732822209     Delta-E=       -0.000000142319 Rises=F Damp=F
 DIIS: error= 1.25D-05 at cycle  15 NSaved=  15.
 NSaved=15 IEnMin=15 EnMin= -345.257732822209     IErMin=15 ErrMin= 1.25D-05
 ErrMax= 1.25D-05 EMaxC= 1.00D-01 BMatC= 2.10D-08 BMatP= 7.71D-08
 IDIUse=1 WtCom= 1.00D+00 WtEn= 0.00D+00
 Coeff-Com:  0.847D-05-0.966D-04-0.396D-03 0.125D-04 0.625D-03-0.156D-02
 Coeff-Com: -0.101D-01 0.150D-01-0.340D-02-0.538D-01 0.413D-01 0.235D+00
 Coeff-Com: -0.472D+00-0.329D+00 0.158D+01
 Coeff:      0.847D-05-0.966D-04-0.396D-03 0.125D-04 0.625D-03-0.156D-02
 Coeff:     -0.101D-01 0.150D-01-0.340D-02-0.538D-01 0.413D-01 0.235D+00
 Coeff:     -0.472D+00-0.329D+00 0.158D+01
 Gap=     0.526 Goal=   None    Shift=    0.000
 Gap=     0.419 Goal=   None    Shift=    0.000
 RMSDP=3.26D-06 MaxDP=9.63D-05 DE=-1.42D-07 OVMax= 2.74D-04

 Cycle  16  Pass 1  IDiag  1:
 E= -345.257732861859     Delta-E=       -0.000000039651 Rises=F Damp=F
 DIIS: error= 8.72D-06 at cycle  16 NSaved=  16.
 NSaved=16 IEnMin=16 EnMin= -345.257732861859     IErMin=16 ErrMin= 8.72D-06
 ErrMax= 8.72D-06 EMaxC= 1.00D-01 BMatC= 5.21D-09 BMatP= 2.10D-08
 IDIUse=1 WtCom= 1.00D+00 WtEn= 0.00D+00
 Coeff-Com:  0.570D-05-0.228D-04-0.301D-03 0.144D-04 0.183D-02-0.126D-02
 Coeff-Com:  0.767D-03-0.263D-02 0.119D-01-0.441D-02-0.489D-01 0.744D-01
 Coeff-Com:  0.895D-01-0.219D+00-0.405D+00 0.150D+01
 Coeff:      0.570D-05-0.228D-04-0.301D-03 0.144D-04 0.183D-02-0.126D-02
 Coeff:      0.767D-03-0.263D-02 0.119D-01-0.441D-02-0.489D-01 0.744D-01
 Coeff:      0.895D-01-0.219D+00-0.405D+00 0.150D+01
 Gap=     0.526 Goal=   None    Shift=    0.000
 Gap=     0.419 Goal=   None    Shift=    0.000
 RMSDP=1.33D-06 MaxDP=4.11D-05 DE=-3.97D-08 OVMax= 7.03D-05

 Cycle  17  Pass 1  IDiag  1:
 E= -345.257732869404     Delta-E=       -0.000000007544 Rises=F Damp=F
 DIIS: error= 4.44D-06 at cycle  17 NSaved=  17.
 NSaved=17 IEnMin=17 EnMin= -345.257732869404     IErMin=17 ErrMin= 4.44D-06
 ErrMax= 4.44D-06 EMaxC= 1.00D-01 BMatC= 1.52D-09 BMatP= 5.21D-09
 IDIUse=1 WtCom= 1.00D+00 WtEn= 0.00D+00
 Coeff-Com: -0.402D-05 0.386D-04 0.169D-03 0.525D-05-0.557D-03 0.875D-03
 Coeff-Com:  0.327D-02-0.518D-02-0.336D-04 0.154D-01-0.949D-02-0.665D-01
 Coeff-Com:  0.119D+00 0.959D-01-0.387D+00-0.288D-01 0.126D+01
 Coeff:     -0.402D-05 0.386D-04 0.169D-03 0.525D-05-0.557D-03 0.875D-03
 Coeff:      0.327D-02-0.518D-02-0.336D-04 0.154D-01-0.949D-02-0.665D-01
 Coeff:      0.119D+00 0.959D-01-0.387D+00-0.288D-01 0.126D+01
 Gap=     0.526 Goal=   None    Shift=    0.000
 Gap=     0.419 Goal=   None    Shift=    0.000
 RMSDP=5.23D-07 MaxDP=1.57D-05 DE=-7.54D-09 OVMax= 2.91D-05

 Cycle  18  Pass 1  IDiag  1:
 E= -345.257732871549     Delta-E=       -0.000000002146 Rises=F Damp=F
 DIIS: error= 2.87D-06 at cycle  18 NSaved=  18.
 NSaved=18 IEnMin=18 EnMin= -345.257732871549     IErMin=18 ErrMin= 2.87D-06
 ErrMax= 2.87D-06 EMaxC= 1.00D-01 BMatC= 6.23D-10 BMatP= 1.52D-09
 IDIUse=1 WtCom= 1.00D+00 WtEn= 0.00D+00
 Coeff-Com: -0.175D-05 0.406D-05 0.854D-04 0.566D-04-0.829D-03 0.566D-03
 Coeff-Com: -0.107D-02 0.217D-02-0.479D-02-0.340D-02 0.213D-01-0.312D-02
 Coeff-Com: -0.710D-01 0.295D-01 0.292D+00-0.448D+00-0.719D+00 0.191D+01
 Coeff:     -0.175D-05 0.406D-05 0.854D-04 0.566D-04-0.829D-03 0.566D-03
 Coeff:     -0.107D-02 0.217D-02-0.479D-02-0.340D-02 0.213D-01-0.312D-02
 Coeff:     -0.710D-01 0.295D-01 0.292D+00-0.448D+00-0.719D+00 0.191D+01
 Gap=     0.526 Goal=   None    Shift=    0.000
 Gap=     0.419 Goal=   None    Shift=    0.000
 RMSDP=5.11D-07 MaxDP=1.04D-05 DE=-2.15D-09 OVMax= 3.24D-05

 Cycle  19  Pass 1  IDiag  1:
 E= -345.257732872683     Delta-E=       -0.000000001134 Rises=F Damp=F
 DIIS: error= 1.40D-06 at cycle  19 NSaved=  19.
 NSaved=19 IEnMin=19 EnMin= -345.257732872683     IErMin=19 ErrMin= 1.40D-06
 ErrMax= 1.40D-06 EMaxC= 1.00D-01 BMatC= 1.94D-10 BMatP= 6.23D-10
 IDIUse=1 WtCom= 1.00D+00 WtEn= 0.00D+00
 Coeff-Com: -0.152D-06 0.145D-05-0.849D-05 0.936D-04 0.271D-04-0.430D-03
 Coeff-Com:  0.113D-03 0.145D-02-0.164D-03-0.145D-02-0.115D-02 0.139D-01
 Coeff-Com: -0.413D-02-0.365D-01-0.893D-02 0.231D+00-0.186D+00-0.815D+00
 Coeff-Com:  0.181D+01
 Coeff:     -0.152D-06 0.145D-05-0.849D-05 0.936D-04 0.271D-04-0.430D-03
 Coeff:      0.113D-03 0.145D-02-0.164D-03-0.145D-02-0.115D-02 0.139D-01
 Coeff:     -0.413D-02-0.365D-01-0.893D-02 0.231D+00-0.186D+00-0.815D+00
 Coeff:      0.181D+01
 Gap=     0.526 Goal=   None    Shift=    0.000
 Gap=     0.419 Goal=   None    Shift=    0.000
 RMSDP=3.72D-07 MaxDP=8.90D-06 DE=-1.13D-09 OVMax= 2.52D-05

 Cycle  20  Pass 1  IDiag  1:
 E= -345.257732873060     Delta-E=       -0.000000000377 Rises=F Damp=F
 DIIS: error= 5.20D-07 at cycle  20 NSaved=  20.
 NSaved=20 IEnMin=20 EnMin= -345.257732873060     IErMin=20 ErrMin= 5.20D-07
 ErrMax= 5.20D-07 EMaxC= 1.00D-01 BMatC= 3.87D-11 BMatP= 1.94D-10
 IDIUse=1 WtCom= 1.00D+00 WtEn= 0.00D+00
 Coeff-Com:  0.174D-06-0.178D-07-0.123D-04-0.246D-04 0.142D-03 0.248D-04
 Coeff-Com:  0.364D-03-0.132D-02 0.140D-02 0.139D-02-0.609D-02-0.214D-02
 Coeff-Com:  0.205D-01-0.201D-02-0.698D-01 0.627D-01 0.212D+00-0.338D+00
 Coeff-Com: -0.302D+00 0.142D+01
 Coeff:      0.174D-06-0.178D-07-0.123D-04-0.246D-04 0.142D-03 0.248D-04
 Coeff:      0.364D-03-0.132D-02 0.140D-02 0.139D-02-0.609D-02-0.214D-02
 Coeff:      0.205D-01-0.201D-02-0.698D-01 0.627D-01 0.212D+00-0.338D+00
 Coeff:     -0.302D+00 0.142D+01
 Gap=     0.526 Goal=   None    Shift=    0.000
 Gap=     0.419 Goal=   None    Shift=    0.000
 RMSDP=1.69D-07 MaxDP=4.35D-06 DE=-3.77D-10 OVMax= 1.37D-05

 Cycle  21  Pass 1  IDiag  1:
 E= -345.257732873144     Delta-E=       -0.000000000083 Rises=F Damp=F
 DIIS: error= 2.19D-07 at cycle  21 NSaved=  20.
 NSaved=20 IEnMin=20 EnMin= -345.257732873144     IErMin=20 ErrMin= 2.19D-07
 ErrMax= 2.19D-07 EMaxC= 1.00D-01 BMatC= 4.95D-12 BMatP= 3.87D-11
 IDIUse=1 WtCom= 1.00D+00 WtEn= 0.00D+00
 Coeff-Com:  0.242D-06 0.261D-05-0.705D-05-0.312D-04 0.749D-04-0.105D-04
 Coeff-Com: -0.995D-04-0.124D-03 0.256D-03 0.590D-03-0.256D-02 0.558D-03
 Coeff-Com:  0.434D-02 0.649D-02-0.411D-01 0.215D-01 0.153D+00-0.246D+00
 Coeff-Com: -0.230D+00 0.133D+01
 Coeff:      0.242D-06 0.261D-05-0.705D-05-0.312D-04 0.749D-04-0.105D-04
 Coeff:     -0.995D-04-0.124D-03 0.256D-03 0.590D-03-0.256D-02 0.558D-03
 Coeff:      0.434D-02 0.649D-02-0.411D-01 0.215D-01 0.153D+00-0.246D+00
 Coeff:     -0.230D+00 0.133D+01
 Gap=     0.526 Goal=   None    Shift=    0.000
 Gap=     0.419 Goal=   None    Shift=    0.000
 RMSDP=3.23D-08 MaxDP=1.13D-06 DE=-8.33D-11 OVMax= 1.63D-06

 Cycle  22  Pass 1  IDiag  1:
 E= -345.257732873149     Delta-E=       -0.000000000005 Rises=F Damp=F
 DIIS: error= 7.50D-08 at cycle  22 NSaved=  20.
 NSaved=20 IEnMin=20 EnMin= -345.257732873149     IErMin=20 ErrMin= 7.50D-08
 ErrMax= 7.50D-08 EMaxC= 1.00D-01 BMatC= 1.03D-12 BMatP= 4.95D-12
 IDIUse=1 WtCom= 1.00D+00 WtEn= 0.00D+00
 Coeff-Com:  0.102D-05 0.689D-05-0.184D-04-0.161D-04-0.531D-04 0.234D-03
 Coeff-Com: -0.217D-03-0.253D-03 0.936D-03 0.688D-03-0.327D-02-0.347D-03
 Coeff-Com:  0.111D-01-0.733D-02-0.331D-01 0.388D-01 0.707D-01-0.201D+00
 Coeff-Com: -0.142D+00 0.126D+01
 Coeff:      0.102D-05 0.689D-05-0.184D-04-0.161D-04-0.531D-04 0.234D-03
 Coeff:     -0.217D-03-0.253D-03 0.936D-03 0.688D-03-0.327D-02-0.347D-03
 Coeff:      0.111D-01-0.733D-02-0.331D-01 0.388D-01 0.707D-01-0.201D+00
 Coeff:     -0.142D+00 0.126D+01
 Gap=     0.526 Goal=   None    Shift=    0.000
 Gap=     0.419 Goal=   None    Shift=    0.000
 RMSDP=1.80D-08 MaxDP=3.79D-07 DE=-5.23D-12 OVMax= 1.45D-06

 Cycle  23  Pass 1  IDiag  1:
 E= -345.257732873151     Delta-E=       -0.000000000003 Rises=F Damp=F
 DIIS: error= 4.64D-08 at cycle  23 NSaved=  20.
 NSaved=20 IEnMin=20 EnMin= -345.257732873151     IErMin=20 ErrMin= 4.64D-08
 ErrMax= 4.64D-08 EMaxC= 1.00D-01 BMatC= 2.59D-13 BMatP= 1.03D-12
 IDIUse=1 WtCom= 1.00D+00 WtEn= 0.00D+00
 Coeff-Com:  0.740D-06 0.345D-05-0.121D-04 0.733D-05-0.416D-05 0.293D-04
 Coeff-Com: -0.591D-04-0.146D-03 0.544D-03-0.291D-03-0.752D-03-0.121D-02
 Coeff-Com:  0.800D-02-0.454D-02-0.317D-01 0.457D-01 0.684D-01-0.281D+00
 Coeff-Com: -0.153D+00 0.135D+01
 Coeff:      0.740D-06 0.345D-05-0.121D-04 0.733D-05-0.416D-05 0.293D-04
 Coeff:     -0.591D-04-0.146D-03 0.544D-03-0.291D-03-0.752D-03-0.121D-02
 Coeff:      0.800D-02-0.454D-02-0.317D-01 0.457D-01 0.684D-01-0.281D+00
 Coeff:     -0.153D+00 0.135D+01
 Gap=     0.526 Goal=   None    Shift=    0.000
 Gap=     0.419 Goal=   None    Shift=    0.000
 RMSDP=7.96D-09 MaxDP=2.08D-07 DE=-2.61D-12 OVMax= 4.63D-07

 SCF Done:  E(UHF) =  -345.257732873     A.U. after   23 cycles
             Convg  =    0.7956D-08             -V/T =  2.0014
 <Sx>= 0.0000 <Sy>= 0.0000 <Sz>= 0.5000 <S**2>= 1.0005 S= 0.6183
 <L.S>= 0.000000000000E+00
 KE= 3.447787740868D+02 PE=-1.399700247797D+03 EE= 4.148003590910D+02
 Annihilation of the first spin contaminant:
 S**2 before annihilation     1.0005,   after     0.7765
 Leave Link  502 at Tue May  1 13:58:33 2018, MaxMem=  671088640 cpu:     354.1
 (Enter /shared/apps/gaussian/G09_LINUX_LINDA/g09/l801.exe)
 Range of M.O.s used for correlation:     1   127
 NBasis=   127 NAE=    29 NBE=    28 NFC=     0 NFV=     0
 NROrb=    127 NOA=    29 NOB=    28 NVA=    98 NVB=    99
 Leave Link  801 at Tue May  1 13:58:33 2018, MaxMem=  671088640 cpu:       0.4
 (Enter /shared/apps/gaussian/G09_LINUX_LINDA/g09/l1101.exe)
 Using compressed storage, NAtomX=    18.
 Will process  19 centers per pass.
 Leave Link 1101 at Tue May  1 13:58:34 2018, MaxMem=  671088640 cpu:       7.7
 (Enter /shared/apps/gaussian/G09_LINUX_LINDA/g09/l1102.exe)
 Symmetrizing basis deriv contribution to polar:
 IMax=3 JMax=2 DiffMx= 0.00D+00
 Leave Link 1102 at Tue May  1 13:58:34 2018, MaxMem=  671088640 cpu:       1.3
 (Enter /shared/apps/gaussian/G09_LINUX_LINDA/g09/l1110.exe)
 Forming Gx(P) for the SCF density, NAtomX=    18.
 Integral derivatives from FoFDir/FoFCou, PRISM(SPDF).
 Do as many integral derivatives as possible in FoFDir.
 G2DrvN: MDV=     671088392.
 G2DrvN: will do    19 centers at a time, making    1 passes doing MaxLOS=2.
 Calling FoFCou, ICntrl=  3107 FMM=F I1Cent=   0 AccDes= 0.00D+00.
 FoFCou: FMM=F IPFlag=           0 FMFlag=      100000 FMFlg1=           0
         NFxFlg=           0 DoJE=F BraDBF=F KetDBF=F FulRan=T
         Omega=  0.000000  0.000000  1.000000  0.000000  0.000000 ICntrl=    3107 IOpCl=  1
         NMat0=    1 NMatS0=    1 NMatT0=    0 NMatD0=    1 NMtDS0=    0 NMtDT0=    0
         I1Cent=           0 NGrid=           0.
 Symmetry not used in FoFCou.
 FoFDir/FoFCou used for L=0 through L=2.
 End of G2Drv Frequency-dependent properties file   721 does not exist.
 End of G2Drv Frequency-dependent properties file   722 does not exist.
 Leave Link 1110 at Tue May  1 13:58:36 2018, MaxMem=  671088640 cpu:      22.7
 (Enter /shared/apps/gaussian/G09_LINUX_LINDA/g09/l1002.exe)
 Minotr:  UHF open shell wavefunction.
          IDoAtm=111111111111111111
          Direct CPHF calculation.
          Differentiating once with respect to electric field.
                with respect to dipole field.
          Differentiating once with respect to nuclear coordinates.
          Requested convergence is 1.0D-08 RMS, and 1.0D-07 maximum.
          Secondary convergence is 1.0D-12 RMS, and 1.0D-12 maximum.
          NewPWx=T KeepS1=F KeepF1=F KeepIn=T MapXYZ=F SortEE=F KeepMc=T.
          MDV=     671088456 using IRadAn=       2.
          Keep R1 and R2 ints in memory in canonical form, NReq=66894031.
 Symmetry not used in FoFDir.
 MinBra= 0 MaxBra= 2 Meth= 1.
 IRaf=       0 NMat=   1 IRICut=       1 DoRegI=T DoRafI=F ISym2E= 0 JSym2E=0.
          Solving linear equations simultaneously, MaxMat=       0.
          There are    57 degrees of freedom in the 1st order CPHF.  IDoFFX=5.
     54 vectors produced by pass  0 Test12= 9.85D-15 1.75D-09 XBig12= 4.64D+01 4.47D+00.
 AX will form    54 AO Fock derivatives at one time.
     54 vectors produced by pass  1 Test12= 9.85D-15 1.75D-09 XBig12= 2.04D+00 3.07D-01.
     54 vectors produced by pass  2 Test12= 9.85D-15 1.75D-09 XBig12= 7.91D-02 5.15D-02.
     54 vectors produced by pass  3 Test12= 9.85D-15 1.75D-09 XBig12= 1.45D-03 7.07D-03.
     54 vectors produced by pass  4 Test12= 9.85D-15 1.75D-09 XBig12= 2.83D-05 1.22D-03.
     54 vectors produced by pass  5 Test12= 9.85D-15 1.75D-09 XBig12= 3.71D-07 9.46D-05.
     54 vectors produced by pass  6 Test12= 9.85D-15 1.75D-09 XBig12= 4.06D-09 7.89D-06.
     30 vectors produced by pass  7 Test12= 9.85D-15 1.75D-09 XBig12= 3.38D-11 6.92D-07.
      5 vectors produced by pass  8 Test12= 9.85D-15 1.75D-09 XBig12= 2.87D-13 6.11D-08.
      2 vectors produced by pass  9 Test12= 9.85D-15 1.75D-09 XBig12= 2.92D-15 5.98D-09.
 Inverted reduced A of dimension   415 with in-core refinement.
 FullF1:  Do perturbations    1 to     3.
 Isotropic polarizability for W=    0.000000       79.22 Bohr**3.
 End of Minotr Frequency-dependent properties file   721 does not exist.
 End of Minotr Frequency-dependent properties file   722 does not exist.
 Leave Link 1002 at Tue May  1 13:59:03 2018, MaxMem=  671088640 cpu:     260.8
 (Enter /shared/apps/gaussian/G09_LINUX_LINDA/g09/l601.exe)
 Copying SCF densities to generalized density rwf, IOpCl= 1 IROHF=0.

 **********************************************************************

            Population analysis using the SCF density.

 **********************************************************************

 Alpha  occ. eigenvalues --  -20.64451 -20.62539 -11.24585 -11.24404 -11.22159
 Alpha  occ. eigenvalues --  -11.21962 -11.21863  -1.50765  -1.18205  -1.10972
 Alpha  occ. eigenvalues --   -1.01179  -0.94545  -0.87995  -0.73863  -0.72166
 Alpha  occ. eigenvalues --   -0.70504  -0.64408  -0.62207  -0.61091  -0.60537
 Alpha  occ. eigenvalues --   -0.55444  -0.54372  -0.53182  -0.51633  -0.51140
 Alpha  occ. eigenvalues --   -0.48455  -0.48099  -0.43707  -0.33260
 Alpha virt. eigenvalues --    0.19343   0.22619   0.23453   0.26743   0.27101
 Alpha virt. eigenvalues --    0.29784   0.31771   0.32271   0.33530   0.34059
 Alpha virt. eigenvalues --    0.36006   0.38454   0.39416   0.42885   0.45420
 Alpha virt. eigenvalues --    0.50325   0.59564   0.68143   0.70979   0.74203
 Alpha virt. eigenvalues --    0.76145   0.78106   0.79634   0.83310   0.85626
 Alpha virt. eigenvalues --    0.93569   0.95104   0.96315   0.98273   0.99820
 Alpha virt. eigenvalues --    1.03778   1.04590   1.07159   1.07950   1.10001
 Alpha virt. eigenvalues --    1.14134   1.14788   1.16809   1.17867   1.18323
 Alpha virt. eigenvalues --    1.20145   1.21727   1.22027   1.24628   1.26308
 Alpha virt. eigenvalues --    1.27913   1.29754   1.30126   1.37242   1.40620
 Alpha virt. eigenvalues --    1.44102   1.50321   1.56492   1.61290   1.67381
 Alpha virt. eigenvalues --    1.69142   1.75499   1.78535   1.80248   1.80738
 Alpha virt. eigenvalues --    1.89375   1.93399   2.04724   2.10716   2.14405
 Alpha virt. eigenvalues --    2.15314   2.16975   2.18642   2.20239   2.32351
 Alpha virt. eigenvalues --    2.34777   2.36441   2.42715   2.47334   2.48220
 Alpha virt. eigenvalues --    2.54855   2.57290   2.63214   2.69139   2.75297
 Alpha virt. eigenvalues --    2.75641   2.76456   2.77506   2.82515   2.85147
 Alpha virt. eigenvalues --    2.86580   2.88829   3.01629   3.24369   3.29457
 Alpha virt. eigenvalues --    3.40405   3.95991   4.19284   4.53655   4.69310
 Alpha virt. eigenvalues --    4.71852   4.74672   4.96032
  Beta  occ. eigenvalues --  -20.62467 -20.61580 -11.23439 -11.23140 -11.22819
  Beta  occ. eigenvalues --  -11.22145 -11.22040  -1.47049  -1.12578  -1.09441
  Beta  occ. eigenvalues --   -0.99434  -0.94594  -0.86064  -0.71556  -0.71112
  Beta  occ. eigenvalues --   -0.63970  -0.63171  -0.61016  -0.58783  -0.58300
  Beta  occ. eigenvalues --   -0.54835  -0.53836  -0.53000  -0.50971  -0.48116
  Beta  occ. eigenvalues --   -0.46580  -0.45741  -0.34606
  Beta virt. eigenvalues --    0.07319   0.20861   0.22808   0.23500   0.26935
  Beta virt. eigenvalues --    0.27248   0.29953   0.32215   0.33432   0.34193
  Beta virt. eigenvalues --    0.35998   0.36319   0.38918   0.40459   0.43551
  Beta virt. eigenvalues --    0.49026   0.50605   0.59786   0.68377   0.71589
  Beta virt. eigenvalues --    0.73832   0.76989   0.79334   0.80072   0.85230
  Beta virt. eigenvalues --    0.87045   0.92713   0.96591   0.97747   1.00260
  Beta virt. eigenvalues --    1.00535   1.04581   1.05648   1.07514   1.08939
  Beta virt. eigenvalues --    1.10493   1.14054   1.14769   1.16973   1.18115
  Beta virt. eigenvalues --    1.19280   1.20926   1.22230   1.22746   1.24764
  Beta virt. eigenvalues --    1.26885   1.28954   1.30684   1.31590   1.38201
  Beta virt. eigenvalues --    1.40561   1.45545   1.52360   1.57006   1.62489
  Beta virt. eigenvalues --    1.69401   1.70944   1.76968   1.78877   1.80996
  Beta virt. eigenvalues --    1.81598   1.91333   1.95907   2.06722   2.11612
  Beta virt. eigenvalues --    2.15375   2.16290   2.18381   2.19674   2.21852
  Beta virt. eigenvalues --    2.33110   2.36287   2.38025   2.43225   2.47975
  Beta virt. eigenvalues --    2.49302   2.55606   2.57350   2.63116   2.69167
  Beta virt. eigenvalues --    2.75840   2.76531   2.77664   2.79859   2.82928
  Beta virt. eigenvalues --    2.86067   2.87265   2.90604   3.02532   3.24608
  Beta virt. eigenvalues --    3.30480   3.40593   3.96435   4.21106   4.54214
  Beta virt. eigenvalues --    4.69476   4.71558   4.75749   4.96594
          Condensed to atoms (all electrons):
              1          2          3          4          5          6
     1  O    8.312204   0.056365  -0.001073   0.000227  -0.057546  -0.000004
     2  O    0.056365   8.154304   0.000500  -0.000002   0.002878   0.000001
     3  C   -0.001073   0.000500   5.022705   0.613126   0.351679  -0.043764
     4  C    0.000227  -0.000002   0.613126   4.948757  -0.048584   0.346136
     5  C   -0.057546   0.002878   0.351679  -0.048584   5.306342  -0.007681
     6  C   -0.000004   0.000001  -0.043764   0.346136  -0.007681   5.107056
     7  C    0.000000   0.000000  -0.043489   0.347732   0.003380  -0.065955
     8  H   -0.028258   0.256678  -0.000012   0.000001  -0.000361   0.000000
     9  H    0.000050  -0.000001   0.394161  -0.038785  -0.039939   0.003539
    10  H    0.035353  -0.027187  -0.032568  -0.003454   0.234175   0.000158
    11  H   -0.000511   0.000675  -0.033532   0.002307   0.382201   0.000140
    12  H   -0.000828   0.001210  -0.035962  -0.000139   0.385704  -0.000195
    13  H    0.000000   0.000000   0.000233  -0.041731   0.000182   0.388463
    14  H    0.000112  -0.000005  -0.003122  -0.035038  -0.000690   0.395428
    15  H   -0.000006   0.000000   0.000473  -0.041032   0.000239   0.391489
    16  H    0.000000   0.000000  -0.001030  -0.040782   0.000146   0.003654
    17  H    0.000000   0.000000  -0.000338  -0.042305  -0.000096  -0.000971
    18  H    0.000000   0.000000   0.000139  -0.041611  -0.000081  -0.001332
              7          8          9         10         11         12
     1  O    0.000000  -0.028258   0.000050   0.035353  -0.000511  -0.000828
     2  O    0.000000   0.256678  -0.000001  -0.027187   0.000675   0.001210
     3  C   -0.043489  -0.000012   0.394161  -0.032568  -0.033532  -0.035962
     4  C    0.347732   0.000001  -0.038785  -0.003454   0.002307  -0.000139
     5  C    0.003380  -0.000361  -0.039939   0.234175   0.382201   0.385704
     6  C   -0.065955   0.000000   0.003539   0.000158   0.000140  -0.000195
     7  C    5.101985   0.000000  -0.005399  -0.000044  -0.000076   0.000032
     8  H    0.000000   0.316198  -0.000001  -0.000131   0.000228  -0.000065
     9  H   -0.005399  -0.000001   0.502265   0.000444  -0.003131   0.002617
    10  H   -0.000044  -0.000131   0.000444   0.504732  -0.023472  -0.022040
    11  H   -0.000076   0.000228  -0.003131  -0.023472   0.506357  -0.022561
    12  H    0.000032  -0.000065   0.002617  -0.022040  -0.022561   0.483724
    13  H   -0.001760   0.000000  -0.000112  -0.000032   0.000008   0.000080
    14  H    0.003591   0.000001   0.000038  -0.000168   0.000070   0.000558
    15  H   -0.002049   0.000000  -0.000107   0.000104  -0.000008  -0.000119
    16  H    0.394833   0.000000   0.003073  -0.000003  -0.000008   0.000005
    17  H    0.389279   0.000000   0.000114  -0.000004   0.000005   0.000007
    18  H    0.388495   0.000000   0.000148   0.000017  -0.000001  -0.000005
             13         14         15         16         17         18
     1  O    0.000000   0.000112  -0.000006   0.000000   0.000000   0.000000
     2  O    0.000000  -0.000005   0.000000   0.000000   0.000000   0.000000
     3  C    0.000233  -0.003122   0.000473  -0.001030  -0.000338   0.000139
     4  C   -0.041731  -0.035038  -0.041032  -0.040782  -0.042305  -0.041611
     5  C    0.000182  -0.000690   0.000239   0.000146  -0.000096  -0.000081
     6  C    0.388463   0.395428   0.391489   0.003654  -0.000971  -0.001332
     7  C   -0.001760   0.003591  -0.002049   0.394833   0.389279   0.388495
     8  H    0.000000   0.000001   0.000000   0.000000   0.000000   0.000000
     9  H   -0.000112   0.000038  -0.000107   0.003073   0.000114   0.000148
    10  H   -0.000032  -0.000168   0.000104  -0.000003  -0.000004   0.000017
    11  H    0.000008   0.000070  -0.000008  -0.000008   0.000005  -0.000001
    12  H    0.000080   0.000558  -0.000119   0.000005   0.000007  -0.000005
    13  H    0.540924  -0.025110  -0.033083  -0.000058   0.002584  -0.000368
    14  H   -0.025110   0.506763  -0.024956  -0.000092  -0.000041  -0.000063
    15  H   -0.033083  -0.024956   0.530041  -0.000033  -0.000387   0.002637
    16  H   -0.000058  -0.000092  -0.000033   0.516619  -0.024931  -0.024594
    17  H    0.002584  -0.000041  -0.000387  -0.024931   0.542957  -0.034516
    18  H   -0.000368  -0.000063   0.002637  -0.024594  -0.034516   0.539316
 Mulliken atomic charges:
              1
     1  O   -0.316085
     2  O   -0.445416
     3  C   -0.188127
     4  C    0.075174
     5  C   -0.511950
     6  C   -0.516162
     7  C   -0.510555
     8  H    0.455723
     9  H    0.181026
    10  H    0.334121
    11  H    0.191308
    12  H    0.207979
    13  H    0.169780
    14  H    0.182725
    15  H    0.176797
    16  H    0.173201
    17  H    0.168644
    18  H    0.171818
 Sum of Mulliken atomic charges =   0.00000
 Mulliken charges with hydrogens summed into heavy atoms:
              1
     1  O    0.018035
     2  O    0.010307
     3  C   -0.007101
     4  C    0.075174
     5  C   -0.112663
     6  C    0.013140
     7  C    0.003108
 Sum of Mulliken charges with hydrogens summed into heavy atoms =   0.00000
          Atomic-Atomic Spin Densities.
              1          2          3          4          5          6
     1  O    0.787030  -0.051086   0.004234   0.000318  -0.068578  -0.000018
     2  O   -0.051086   0.018097  -0.000223  -0.000005   0.006580   0.000001
     3  C    0.004234  -0.000223  -0.723144   0.034768  -0.038269  -0.000179
     4  C    0.000318  -0.000005   0.034768   0.826831  -0.012942  -0.027539
     5  C   -0.068578   0.006580  -0.038269  -0.012942   0.784202   0.000354
     6  C   -0.000018   0.000001  -0.000179  -0.027539   0.000354  -0.085623
     7  C    0.000001   0.000000  -0.000580  -0.023662   0.000018   0.002233
     8  H    0.000098  -0.000351   0.000000   0.000000  -0.000025   0.000000
     9  H   -0.000039   0.000001   0.007195  -0.002036  -0.001576   0.000041
    10  H   -0.079401   0.019552   0.016656   0.000204   0.069210  -0.000033
    11  H    0.003122  -0.000743   0.004497  -0.000132  -0.022130  -0.000022
    12  H    0.003015  -0.000971   0.004127  -0.000575  -0.021333   0.000312
    13  H    0.000001   0.000000  -0.000020  -0.012218   0.000098   0.006952
    14  H    0.000001   0.000000   0.000859  -0.002113  -0.000475   0.003418
    15  H   -0.000009   0.000000   0.000014  -0.011758   0.000156   0.007835
    16  H    0.000000   0.000000   0.000967  -0.002214  -0.000003  -0.000063
    17  H    0.000000   0.000000  -0.000156  -0.012574   0.000021   0.000441
    18  H    0.000000   0.000000   0.000165  -0.013231   0.000025   0.000620
              7          8          9         10         11         12
     1  O    0.000001   0.000098  -0.000039  -0.079401   0.003122   0.003015
     2  O    0.000000  -0.000351   0.000001   0.019552  -0.000743  -0.000971
     3  C   -0.000580   0.000000   0.007195   0.016656   0.004497   0.004127
     4  C   -0.023662   0.000000  -0.002036   0.000204  -0.000132  -0.000575
     5  C    0.000018  -0.000025  -0.001576   0.069210  -0.022130  -0.021333
     6  C    0.002233   0.000000   0.000041  -0.000033  -0.000022   0.000312
     7  C   -0.091782   0.000000   0.000184   0.000019   0.000008   0.000005
     8  H    0.000000  -0.001296   0.000000   0.000175  -0.000025  -0.000001
     9  H    0.000184   0.000000   0.041967  -0.000300  -0.000182  -0.000044
    10  H    0.000019   0.000175  -0.000300  -0.260036   0.009691   0.010213
    11  H    0.000008  -0.000025  -0.000182   0.009691  -0.039355   0.002334
    12  H    0.000005  -0.000001  -0.000044   0.010213   0.002334  -0.040281
    13  H    0.000593   0.000000  -0.000011   0.000007   0.000004   0.000027
    14  H   -0.000076   0.000000   0.000004  -0.000016   0.000013   0.000144
    15  H    0.000358   0.000000   0.000004  -0.000024  -0.000002  -0.000030
    16  H    0.003515   0.000000  -0.000072   0.000001   0.000001   0.000000
    17  H    0.007748   0.000000  -0.000037   0.000001   0.000001   0.000001
    18  H    0.006757   0.000000   0.000050  -0.000005  -0.000001  -0.000001
             13         14         15         16         17         18
     1  O    0.000001   0.000001  -0.000009   0.000000   0.000000   0.000000
     2  O    0.000000   0.000000   0.000000   0.000000   0.000000   0.000000
     3  C   -0.000020   0.000859   0.000014   0.000967  -0.000156   0.000165
     4  C   -0.012218  -0.002113  -0.011758  -0.002214  -0.012574  -0.013231
     5  C    0.000098  -0.000475   0.000156  -0.000003   0.000021   0.000025
     6  C    0.006952   0.003418   0.007835  -0.000063   0.000441   0.000620
     7  C    0.000593  -0.000076   0.000358   0.003515   0.007748   0.006757
     8  H    0.000000   0.000000   0.000000   0.000000   0.000000   0.000000
     9  H   -0.000011   0.000004   0.000004  -0.000072  -0.000037   0.000050
    10  H    0.000007  -0.000016  -0.000024   0.000001   0.000001  -0.000005
    11  H    0.000004   0.000013  -0.000002   0.000001   0.000001  -0.000001
    12  H    0.000027   0.000144  -0.000030   0.000000   0.000001  -0.000001
    13  H    0.035509  -0.000692  -0.006972  -0.000001   0.001584  -0.000624
    14  H   -0.000692   0.003473  -0.000655   0.000000   0.000001  -0.000003
    15  H   -0.006972  -0.000655   0.032649  -0.000003  -0.000638   0.001650
    16  H   -0.000001   0.000000  -0.000003   0.003302  -0.000613  -0.000786
    17  H    0.001584   0.000001  -0.000638  -0.000613   0.036374  -0.008117
    18  H   -0.000624  -0.000003   0.001650  -0.000786  -0.008117   0.040108
 Mulliken atomic spin densities:
              1
     1  O    0.598688
     2  O   -0.009148
     3  C   -0.689091
     4  C    0.741122
     5  C    0.695333
     6  C   -0.091271
     7  C   -0.094662
     8  H   -0.001424
     9  H    0.045150
    10  H   -0.214088
    11  H   -0.042921
    12  H   -0.043057
    13  H    0.024238
    14  H    0.003884
    15  H    0.022575
    16  H    0.004029
    17  H    0.024036
    18  H    0.026607
 Sum of Mulliken atomic spin densities =   1.00000
 APT atomic charges:
              1
     1  O    0.787828
     2  O   -0.511484
     3  C   -0.342819
     4  C    0.120449
     5  C    0.990523
     6  C    0.078523
     7  C    0.130880
     8  H    0.279888
     9  H   -0.018911
    10  H   -1.107706
    11  H   -0.104097
    12  H   -0.089133
    13  H   -0.037243
    14  H   -0.016675
    15  H   -0.026773
    16  H   -0.029134
    17  H   -0.053640
    18  H   -0.050475
 Sum of APT charges=   0.00000
 APT Atomic charges with hydrogens summed into heavy atoms:
              1
     1  O   -0.319878
     2  O   -0.231596
     3  C   -0.361730
     4  C    0.120449
     5  C    0.797293
     6  C   -0.002169
     7  C   -0.002370
     8  H    0.000000
     9  H    0.000000
    10  H    0.000000
    11  H    0.000000
    12  H    0.000000
    13  H    0.000000
    14  H    0.000000
    15  H    0.000000
    16  H    0.000000
    17  H    0.000000
    18  H    0.000000
 Sum of APT charges=   0.00000
 Electronic spatial extent (au):  <R**2>=           1479.1923
 Charge=              0.0000 electrons
 Dipole moment (field-independent basis, Debye):
    X=              1.4280    Y=              0.8738    Z=             -1.3626  Tot=              2.1585
 Quadrupole moment (field-independent basis, Debye-Ang):
   XX=            -46.0150   YY=            -43.1708   ZZ=            -40.1191
   XY=             -4.5282   XZ=              6.8233   YZ=             -3.1426
 Traceless Quadrupole moment (field-independent basis, Debye-Ang):
   XX=             -2.9134   YY=             -0.0692   ZZ=              2.9825
   XY=             -4.5282   XZ=              6.8233   YZ=             -3.1426
 Octapole moment (field-independent basis, Debye-Ang**2):
  XXX=             54.3150  YYY=            -34.5054  ZZZ=             30.1283  XYY=             14.8890
  XXY=              2.1385  XXZ=            -16.6109  XZZ=              9.3415  YZZ=             -6.3722
  YYZ=              9.5287  XYZ=             13.9618
 Hexadecapole moment (field-independent basis, Debye-Ang**3):
 XXXX=          -1111.0920 YYYY=           -264.1298 ZZZZ=           -279.8213 XXXY=            104.7128
 XXXZ=             49.5580 YYYX=            165.8575 YYYZ=             29.2796 ZZZX=            -81.9560
 ZZZY=             27.0375 XXYY=           -227.6026 XXZZ=           -198.4324 YYZZ=            -83.7814
 XXYZ=            -40.6361 YYXZ=            -13.8125 ZZXY=             35.2150
 N-N= 2.948633817459D+02 E-N=-2.090347898335D+03  KE= 5.157698692447D+02
  Exact polarizability: 122.297 -11.549  54.804   9.338  -4.895  60.557
 Approx polarizability:  64.301  -6.000  48.354   3.569  -2.939  51.870
                          Isotropic Fermi Contact Couplings
        Atom                 a.u.       MegaHertz       Gauss      10(-4) cm-1
     1  O(17)              0.12271     -74.38923     -26.54393     -24.81358
     2  O(17)              0.02210     -13.39455      -4.77951      -4.46794
     3  C(13)             -0.12437    -139.81690     -49.89015     -46.63790
     4  C(13)              0.13152     147.84809      52.75587      49.31682
     5  C(13)              0.16892     189.89664      67.75984      63.34270
     6  C(13)             -0.03007     -33.80745     -12.06334     -11.27695
     7  C(13)             -0.03146     -35.36624     -12.61955     -11.79691
     8  H(1)              -0.00079      -3.53095      -1.25993      -1.17780
     9  H(1)               0.01392      62.20206      22.19524      20.74837
    10  H(1)              -0.08583    -383.66061    -136.89964    -127.97540
    11  H(1)              -0.01420     -63.48410     -22.65270     -21.17602
    12  H(1)              -0.01447     -64.68403     -23.08087     -21.57627
    13  H(1)               0.01083      48.41858      17.27695      16.15070
    14  H(1)               0.00131       5.87669       2.09695       1.96025
    15  H(1)               0.01016      45.41342      16.20464      15.14828
    16  H(1)               0.00137       6.12303       2.18485       2.04242
    17  H(1)               0.01073      47.95703      17.11226      15.99674
    18  H(1)               0.01176      52.56708      18.75724      17.53449
 --------------------------------------------------------
       Center         ----  Spin Dipole Couplings  ----
                      3XX-RR        3YY-RR        3ZZ-RR
 --------------------------------------------------------
     1   Atom        1.083257      0.096070     -1.179327
     2   Atom        0.227840     -0.177434     -0.050406
     3   Atom       -0.048478     -0.178504      0.226982
     4   Atom        0.081456      0.222812     -0.304268
     5   Atom        0.291090      0.003459     -0.294550
     6   Atom        0.005579      0.003002     -0.008581
     7   Atom       -0.002612     -0.001872      0.004484
     8   Atom        0.006784     -0.000405     -0.006379
     9   Atom        0.016092      0.003389     -0.019481
    10   Atom        0.174764     -0.049594     -0.125170
    11   Atom       -0.015731     -0.008990      0.024721
    12   Atom       -0.015743     -0.003576      0.019319
    13   Atom       -0.004169     -0.002925      0.007095
    14   Atom       -0.001044     -0.003219      0.004263
    15   Atom       -0.001898     -0.005846      0.007744
    16   Atom        0.001068     -0.000048     -0.001021
    17   Atom        0.005419     -0.001333     -0.004086
    18   Atom        0.001463      0.002881     -0.004344
 --------------------------------------------------------
                        XY            XZ            YZ
 --------------------------------------------------------
     1   Atom        1.667414     -0.388547     -0.244829
     2   Atom        0.244433     -0.041281     -0.095720
     3   Atom       -0.362123      0.038586      0.023228
     4   Atom        0.438836     -0.035279     -0.027764
     5   Atom        0.427861     -0.043444     -0.037742
     6   Atom       -0.001606      0.000576     -0.000351
     7   Atom        0.005404     -0.002241      0.002312
     8   Atom       -0.011515      0.007686     -0.010552
     9   Atom       -0.014132      0.016997     -0.018382
    10   Atom        0.157176     -0.035436     -0.019239
    11   Atom        0.012076      0.011586     -0.036168
    12   Atom        0.013088     -0.005532      0.033628
    13   Atom       -0.000797      0.001610      0.002691
    14   Atom       -0.000144     -0.000312      0.002735
    15   Atom       -0.000960     -0.000665     -0.001012
    16   Atom       -0.001749     -0.004652      0.003979
    17   Atom       -0.005929     -0.001577     -0.000442
    18   Atom       -0.006682      0.000320      0.001653
 --------------------------------------------------------


 ---------------------------------------------------------------------------------
              Anisotropic Spin Dipole Couplings in Principal Axis System
 ---------------------------------------------------------------------------------

       Atom             a.u.   MegaHertz   Gauss  10(-4) cm-1        Axes

              Baa    -1.2509    90.513    32.297    30.192  0.2959 -0.1964  0.9348
     1 O(17)  Bbb    -1.1365    82.235    29.344    27.431 -0.5289  0.7813  0.3315
              Bcc     2.3874  -172.748   -61.641   -57.623  0.7955  0.5925 -0.1273
 
              Baa    -0.3113    22.523     8.037     7.513 -0.3813  0.8857  0.2647
     2 O(17)  Bbb    -0.0466     3.375     1.204     1.126  0.2846 -0.1599  0.9452
              Bcc     0.3579   -25.898    -9.241    -8.639  0.8795  0.4358 -0.1911
 
              Baa    -0.4840   -64.942   -23.173   -21.662  0.6414  0.7649 -0.0598
     3 C(13)  Bbb     0.2227    29.890    10.665     9.970 -0.2871  0.3116  0.9058
              Bcc     0.2612    35.052    12.508    11.692  0.7115 -0.5638  0.4194
 
              Baa    -0.3107   -41.690   -14.876   -13.906  0.3591 -0.2486  0.8996
     4 C(13)  Bbb    -0.2881   -38.659   -13.794   -12.895  0.6716 -0.6004 -0.4341
              Bcc     0.5988    80.349    28.671    26.802  0.6481  0.7600 -0.0487
 
              Baa    -0.3072   -41.224   -14.710   -13.751 -0.4775  0.7190  0.5050
     5 C(13)  Bbb    -0.2951   -39.602   -14.131   -13.210  0.3402 -0.3787  0.8607
              Bcc     0.6023    80.826    28.841    26.961  0.8101  0.5828 -0.0638
 
              Baa    -0.0086    -1.156    -0.412    -0.385 -0.0378  0.0250  0.9990
     6 C(13)  Bbb     0.0022     0.299     0.107     0.100  0.4335  0.9011 -0.0062
              Bcc     0.0064     0.856     0.305     0.286  0.9004 -0.4328  0.0449
 
              Baa    -0.0085    -1.135    -0.405    -0.379  0.7070 -0.6648  0.2412
     7 C(13)  Bbb     0.0032     0.425     0.151     0.142  0.6959  0.7147 -0.0701
              Bcc     0.0053     0.710     0.254     0.237 -0.1258  0.2174  0.9679
 
              Baa    -0.0144    -7.689    -2.744    -2.565  0.0650  0.6340  0.7706
     8 H(1)   Bbb    -0.0066    -3.523    -1.257    -1.175  0.7140  0.5099 -0.4797
              Bcc     0.0210    11.212     4.001     3.740  0.6971 -0.5814  0.4195
 
              Baa    -0.0314   -16.740    -5.973    -5.584 -0.2048  0.3912  0.8972
     9 H(1)   Bbb    -0.0046    -2.475    -0.883    -0.826  0.6485  0.7409 -0.1750
              Bcc     0.0360    19.216     6.857     6.410  0.7332 -0.5460  0.4054
 
              Baa    -0.1310   -69.894   -24.940   -23.314 -0.3574  0.8029  0.4771
    10 H(1)   Bbb    -0.1289   -68.780   -24.542   -22.942  0.3009 -0.3846  0.8727
              Bcc     0.2599   138.674    49.482    46.257  0.8841  0.4555 -0.1041
 
              Baa    -0.0422   -22.538    -8.042    -7.518 -0.5280  0.7057  0.4725
    11 H(1)   Bbb    -0.0057    -3.044    -1.086    -1.015  0.8475  0.4734  0.2400
              Bcc     0.0479    25.582     9.128     8.533  0.0543 -0.5272  0.8480
 
              Baa    -0.0368   -19.646    -7.010    -6.553 -0.5516  0.6905 -0.4680
    12 H(1)   Bbb    -0.0067    -3.599    -1.284    -1.201  0.8323  0.4186 -0.3634
              Bcc     0.0436    23.245     8.295     7.754  0.0550  0.5899  0.8056
 
              Baa    -0.0052    -2.762    -0.986    -0.921  0.8009  0.5543 -0.2266
    13 H(1)   Bbb    -0.0028    -1.468    -0.524    -0.490 -0.5880  0.7996 -0.1223
              Bcc     0.0079     4.230     1.509     1.411  0.1134  0.2312  0.9663
 
              Baa    -0.0041    -2.194    -0.783    -0.732  0.0131  0.9506 -0.3100
    14 H(1)   Bbb    -0.0011    -0.567    -0.202    -0.189  0.9984  0.0046  0.0562
              Bcc     0.0052     2.761     0.985     0.921 -0.0549  0.3102  0.9491
 
              Baa    -0.0062    -3.287    -1.173    -1.096  0.2311  0.9695  0.0816
    15 H(1)   Bbb    -0.0017    -0.905    -0.323    -0.302  0.9710 -0.2351  0.0432
              Bcc     0.0079     4.191     1.496     1.398 -0.0610 -0.0693  0.9957
 
              Baa    -0.0057    -3.042    -1.085    -1.015  0.4361 -0.4239  0.7938
    16 H(1)   Bbb    -0.0013    -0.696    -0.248    -0.232  0.6509  0.7577  0.0470
              Bcc     0.0070     3.737     1.334     1.247  0.6214 -0.4962 -0.6063
 
              Baa    -0.0057    -3.036    -1.083    -1.013  0.4382  0.6583  0.6120
    17 H(1)   Bbb    -0.0033    -1.748    -0.624    -0.583 -0.2446 -0.5678  0.7860
              Bcc     0.0090     4.784     1.707     1.596  0.8649 -0.4941 -0.0878
 
              Baa    -0.0058    -3.108    -1.109    -1.037 -0.5062 -0.5192  0.6886
    18 H(1)   Bbb    -0.0031    -1.677    -0.598    -0.559  0.5538  0.4164  0.7211
              Bcc     0.0090     4.786     1.708     1.596 -0.6611  0.7463  0.0768
 

 ---------------------------------------------------------------------------------

 No NMR shielding tensors so no spin-rotation constants.
 Leave Link  601 at Tue May  1 13:59:04 2018, MaxMem=  671088640 cpu:      15.6
 (Enter /shared/apps/gaussian/G09_LINUX_LINDA/g09/l701.exe)
 Compute integral second derivatives.
 ... and contract with generalized density number  0.
 Leave Link  701 at Tue May  1 13:59:05 2018, MaxMem=  671088640 cpu:       8.7
 (Enter /shared/apps/gaussian/G09_LINUX_LINDA/g09/l702.exe)
 L702 exits ... SP integral derivatives will be done elsewhere.
 Leave Link  702 at Tue May  1 13:59:05 2018, MaxMem=  671088640 cpu:       0.3
 (Enter /shared/apps/gaussian/G09_LINUX_LINDA/g09/l703.exe)
 Compute integral second derivatives, UseDBF=F ICtDFT=           0.
 Integral derivatives from FoFDir, PRISM(SPDF).
 Calling FoFJK, ICntrl=    100127 FMM=F ISym2X=0 I1Cent= 0 IOpClX= 1 NMat=1 NMatS=1 NMatT=0.
 FoFCou: FMM=F IPFlag=           0 FMFlag=      100000 FMFlg1=         800
         NFxFlg=           0 DoJE=F BraDBF=F KetDBF=F FulRan=T
         Omega=  0.000000  0.000000  1.000000  0.000000  0.000000 ICntrl=  100127 IOpCl=  1
         NMat0=    1 NMatS0=    1 NMatT0=    0 NMatD0=    1 NMtDS0=    0 NMtDT0=    0
         I1Cent=           0 NGrid=           0.
 Symmetry not used in FoFCou.
 Leave Link  703 at Tue May  1 13:59:09 2018, MaxMem=  671088640 cpu:      33.1
 (Enter /shared/apps/gaussian/G09_LINUX_LINDA/g09/l716.exe)
 Dipole        = 5.61801104D-01 3.43778904D-01-5.36076365D-01
 Polarizability= 1.22296854D+02-1.15492793D+01 5.48036730D+01
                 9.33825066D+00-4.89507464D+00 6.05568662D+01
 HyperPolar    =-9.80799531D+02 3.02776802D+02-2.35606397D+01
                -4.54372266D+00-1.02568471D+02 5.63490598D+01
                 2.68472591D+00 1.05856066D+00 3.42998291D+01
                -8.89376236D+01
 -------------------------------------------------------------------
 Center     Atomic                   Forces (Hartrees/Bohr)
 Number     Number              X              Y              Z
 -------------------------------------------------------------------
      1        8           0.000005923   -0.000004530    0.000014219
      2        8           0.000001550    0.000001113   -0.000000674
      3        6           0.000000592   -0.000000501    0.000000969
      4        6           0.000000009    0.000000299   -0.000000259
      5        6          -0.000000543   -0.000005463    0.000012087
      6        6           0.000000045   -0.000000046   -0.000000063
      7        6           0.000000102    0.000000105    0.000000031
      8        1           0.000000020   -0.000000182    0.000000034
      9        1          -0.000000141    0.000000076    0.000000004
     10        1          -0.000007596    0.000009005   -0.000027066
     11        1           0.000000418   -0.000000346   -0.000000135
     12        1          -0.000000433    0.000000521    0.000000771
     13        1           0.000000079   -0.000000185    0.000000054
     14        1           0.000000159    0.000000084    0.000000055
     15        1          -0.000000189    0.000000048   -0.000000013
     16        1           0.000000013    0.000000014    0.000000000
     17        1          -0.000000008   -0.000000009    0.000000002
     18        1          -0.000000001   -0.000000002   -0.000000017
 -------------------------------------------------------------------
 Cartesian Forces:  Max     0.000027066 RMS     0.000004931
 Z-matrix is all fixed cartesians, so copy forces.
 Leave Link  716 at Tue May  1 13:59:09 2018, MaxMem=  671088640 cpu:       0.4
 (Enter /shared/apps/gaussian/G09_LINUX_LINDA/g09/l123.exe)
 IRC-IRC-IRC-IRC-IRC-IRC-IRC-IRC-IRC-IRC-IRC-IRC-IRC-IRC-IRC-IRC-IRC-IRC
          ******** Start new reaction path calculation ********
 Current Structure is TS -> diagonalize the Hessian.
 Supplied step size of   0.1000 bohr.
    Integration on MW PES will use step size of   0.1041 sqrt(amu)*bohr.
 Point Number:   0          Path Number:   1
 Calculating another point on the path.
 Point Number  1 in FORWARD path direction.
 Using LQA Reaction Path Following.
 IRC-IRC-IRC-IRC-IRC-IRC-IRC-IRC-IRC-IRC-IRC-IRC-IRC-IRC-IRC-IRC-IRC-IRC
 Leave Link  123 at Tue May  1 13:59:10 2018, MaxMem=  671088640 cpu:       5.3
 (Enter /shared/apps/gaussian/G09_LINUX_LINDA/g09/l202.exe)
                          Input orientation:                          
 ---------------------------------------------------------------------
 Center     Atomic      Atomic             Coordinates (Angstroms)
 Number     Number       Type             X           Y           Z
 ---------------------------------------------------------------------
      1          8           0       -2.368374   -0.169122   -0.409276
      2          8           0       -3.206019    0.884370   -0.149364
      3          6           0        0.967062    0.098986   -0.754433
      4          6           0        1.663180   -0.446054    0.279639
      5          6           0       -0.140427    1.037851   -0.670541
      6          6           0        1.404496   -0.143010    1.732838
      7          6           0        2.777661   -1.428106    0.022514
      8          1           0       -3.604094    1.066393   -0.992026
      9          1           0        1.225913   -0.228354   -1.748015
     10          1           0       -1.305036    0.334982   -0.557436
     11          1           0       -0.330071    1.601174   -1.572584
     12          1           0       -0.217254    1.648249    0.214893
     13          1           0        2.288316    0.291219    2.194905
     14          1           0        0.575968    0.533490    1.888340
     15          1           0        1.184374   -1.060622    2.272550
     16          1           0        2.927729   -1.604090   -1.036101
     17          1           0        3.714876   -1.068153    0.441075
     18          1           0        2.566903   -2.383808    0.497059
 ---------------------------------------------------------------------
                    Distance matrix (angstroms):
                    1          2          3          4          5
     1  O    0.000000
     2  O    1.370784   0.000000
     3  C    3.363949   4.289236   0.000000
     4  C    4.099356   5.065883   1.360497   0.000000
     5  C    2.547310   3.113364   1.454317   2.521471   0.000000
     6  C    4.338650   5.084786   2.537012   1.506831   3.091513
     7  C    5.315370   6.417283   2.492775   1.507518   3.882849
     8  H    1.842038   0.949566   4.678440   5.625727   3.478672
     9  H    3.835965   4.841060   1.077665   2.085660   2.152002
    10  H    1.186069   2.020417   2.292801   3.181354   1.364966
    11  H    2.939713   3.287924   2.146740   3.405131   1.080268
    12  H    2.884396   3.106269   2.177708   2.815373   1.078184
    13  H    5.355225   6.002928   3.237478   2.145370   3.829757
    14  H    3.800244   4.310311   2.706659   2.174731   2.704714
    15  H    4.539711   5.378124   3.248776   2.139776   3.849737
    16  H    5.522748   6.678443   2.612282   2.161320   4.065350
    17  H    6.207840   7.215245   3.215888   2.150007   4.531480
    18  H    5.484819   6.665244   3.207802   2.149158   4.516711
                    6          7          8          9         10
     6  C    0.000000
     7  C    2.542098   0.000000
     8  H    5.828681   6.926660   0.000000
     9  H    3.486476   2.642367   5.057357   0.000000
    10  H    3.579860   4.484779   2.451428   2.853162   0.000000
    11  H    4.120281   4.623729   3.367828   2.408119   1.893232
    12  H    2.853566   4.297731   3.642237   3.075285   1.872013
    13  H    1.087749   2.813329   6.743732   4.116464   4.526530
    14  H    1.080876   3.489502   5.104255   3.771726   3.091828
    15  H    1.087085   2.781415   6.173417   4.106012   4.019166
    16  H    3.481668   1.083585   7.056780   2.301228   4.680323
    17  H    2.803996   1.087718   7.757409   3.419403   5.307102
    18  H    2.810608   1.087648   7.225128   3.388893   4.847236
                   11         12         13         14         15
    11  H    0.000000
    12  H    1.791652   0.000000
    13  H    4.771363   3.469851   0.000000
    14  H    3.733477   2.161554   1.756364   0.000000
    15  H    4.915664   3.679198   1.747052   1.748991   0.000000
    16  H    4.601607   4.693998   3.800058   4.318841   3.779128
    17  H    5.248021   4.784522   2.637970   3.809538   3.123747
    18  H    5.343778   4.908018   3.180576   3.796066   2.610474
                   16         17         18
    16  H    0.000000
    17  H    1.757520   0.000000
    18  H    1.757479   1.746976   0.000000
 Symmetry turned off by external request.
 Stoichiometry    C5H11O2(2)
 Framework group  C1[X(C5H11O2)]
 Deg. of freedom    48
 Full point group                 C1      NOp   1
 Rotational constants (GHZ):      4.9401401      0.9220051      0.8786764
 Leave Link  202 at Tue May  1 13:59:10 2018, MaxMem=  671088640 cpu:       0.9
 (Enter /shared/apps/gaussian/G09_LINUX_LINDA/g09/l301.exe)
 Standard basis: 6-31G(d) (6D, 7F)
 Ernie: Thresh=  0.10000D-02 Tol=  0.10000D-05 Strict=F.
 Integral buffers will be    131072 words long.
 Raffenetti 2 integral format.
 Two-electron integral symmetry is turned off.
   127 basis functions,   240 primitive gaussians,   127 cartesian basis functions
    29 alpha electrons       28 beta electrons
       nuclear repulsion energy       294.8935323147 Hartrees.
 IExCor=    0 DFT=F Ex=HF Corr=None ExCW=0 ScaHFX=  1.000000
 ScaDFX=  1.000000  1.000000  1.000000  1.000000 ScalE2=  1.000000  1.000000
 IRadAn=      0 IRanWt=     -1 IRanGd=            0 ICorTp=0
 NAtoms=   18 NActive=   18 NUniq=   18 SFac= 1.00D+00 NAtFMM=   50 NAOKFM=F Big=F
 Leave Link  301 at Tue May  1 13:59:10 2018, MaxMem=  671088640 cpu:       0.9
 (Enter /shared/apps/gaussian/G09_LINUX_LINDA/g09/l302.exe)
 NPDir=0 NMtPBC=     1 NCelOv=     1 NCel=       1 NClECP=     1 NCelD=      1
         NCelK=      1 NCelE2=     1 NClLst=     1 CellRange=     0.0.
 One-electron integrals computed using PRISM.
 NBasis=   127 RedAO= T  NBF=   127
 NBsUse=   127 1.00D-06 NBFU=   127
 Leave Link  302 at Tue May  1 13:59:11 2018, MaxMem=  671088640 cpu:       6.5
 (Enter /shared/apps/gaussian/G09_LINUX_LINDA/g09/l303.exe)
 DipDrv:  MaxL=1.
 Leave Link  303 at Tue May  1 13:59:11 2018, MaxMem=  671088640 cpu:       1.7
 (Enter /shared/apps/gaussian/G09_LINUX_LINDA/g09/l401.exe)
 Initial guess read from the read-write file.
 B after Tr=     0.000000    0.000000    0.000000
         Rot=    1.000000    0.000000    0.000000    0.000000 Ang=   0.00 deg.
 Guess basis will be translated and rotated to current coordinates.
 Initial guess <Sx>= 0.0000 <Sy>= 0.0000 <Sz>= 0.5000 <S**2>= 1.0008 S= 0.6184
 Generating alternative initial guess.
 Harris functional with IExCor=  205 diagonalized for initial guess.
 ExpMin= 1.61D-01 ExpMax= 5.48D+03 ExpMxC= 8.25D+02 IAcc=1 IRadAn=         1 AccDes= 0.00D+00
 HarFok:  IExCor=  205 AccDes= 0.00D+00 IRadAn=         1 IDoV= 1
 ScaDFX=  1.000000  1.000000  1.000000  1.000000
 FoFCou: FMM=F IPFlag=           0 FMFlag=      100000 FMFlg1=           0
         NFxFlg=           0 DoJE=T BraDBF=F KetDBF=T FulRan=T
         Omega=  0.000000  0.000000  1.000000  0.000000  0.000000 ICntrl=     500 IOpCl=  0
         NMat0=    1 NMatS0=    1 NMatT0=    0 NMatD0=    1 NMtDS0=    0 NMtDT0=    0
         I1Cent=           4 NGrid=           0.
 Symmetry not used in FoFCou.
 Harris En= -345.810132222736    
 Leave Link  401 at Tue May  1 13:59:14 2018, MaxMem=  671088640 cpu:      31.4
 (Enter /shared/apps/gaussian/G09_LINUX_LINDA/g09/l502.exe)
 UHF open shell SCF:
 Requested convergence on RMS density matrix=1.00D-08 within 128 cycles.
 Requested convergence on MAX density matrix=1.00D-06.
 Requested convergence on             energy=1.00D-06.
 No special actions if energy rises.
 Using DIIS extrapolation, IDIIS=  1040.
 Two-electron integral symmetry not used.
 Keep R1 and R2 ints in memory in canonical form, NReq=67190916.
 IEnd=       69871 IEndB=       69871 NGot=   671088640 MDV=   604979126
 LenX=   604979126 LenY=   604962556
 Symmetry not used in FoFDir.
 MinBra= 0 MaxBra= 2 Meth= 1.
 IRaf=       0 NMat=   1 IRICut=       1 DoRegI=T DoRafI=F ISym2E= 0 JSym2E=0.

 Cycle   1  Pass 1  IDiag  1:
 E= -345.256258883246    
 DIIS: error= 3.13D-03 at cycle   1 NSaved=   1.
 NSaved= 1 IEnMin= 1 EnMin= -345.256258883246     IErMin= 1 ErrMin= 3.13D-03
 ErrMax= 3.13D-03 EMaxC= 1.00D-01 BMatC= 3.32D-03 BMatP= 3.32D-03
 IDIUse=3 WtCom= 9.69D-01 WtEn= 3.13D-02
 Coeff-Com:  0.100D+01
 Coeff-En:   0.100D+01
 Coeff:      0.100D+01
 Gap=     0.525 Goal=   None    Shift=    0.000
 Gap=     0.429 Goal=   None    Shift=    0.000
 GapD=    0.429 DampG=2.000 DampE=1.000 DampFc=2.0000 IDamp=-1.
 RMSDP=3.26D-04 MaxDP=9.29D-03              OVMax= 2.25D-02

 Cycle   2  Pass 1  IDiag  1:
 E= -345.258183248268     Delta-E=       -0.001924365022 Rises=F Damp=F
 DIIS: error= 1.74D-03 at cycle   2 NSaved=   2.
 NSaved= 2 IEnMin= 2 EnMin= -345.258183248268     IErMin= 2 ErrMin= 1.74D-03
 ErrMax= 1.74D-03 EMaxC= 1.00D-01 BMatC= 1.05D-03 BMatP= 3.32D-03
 IDIUse=3 WtCom= 9.83D-01 WtEn= 1.74D-02
 Coeff-Com:  0.469D-01 0.953D+00
 Coeff-En:   0.000D+00 0.100D+01
 Coeff:      0.460D-01 0.954D+00
 Gap=     0.524 Goal=   None    Shift=    0.000
 Gap=     0.426 Goal=   None    Shift=    0.000
 RMSDP=1.87D-04 MaxDP=5.40D-03 DE=-1.92D-03 OVMax= 1.40D-02

 Cycle   3  Pass 1  IDiag  1:
 E= -345.258894960237     Delta-E=       -0.000711711969 Rises=F Damp=F
 DIIS: error= 1.65D-03 at cycle   3 NSaved=   3.
 NSaved= 3 IEnMin= 3 EnMin= -345.258894960237     IErMin= 3 ErrMin= 1.65D-03
 ErrMax= 1.65D-03 EMaxC= 1.00D-01 BMatC= 3.97D-04 BMatP= 1.05D-03
 IDIUse=3 WtCom= 9.83D-01 WtEn= 1.65D-02
[...]
    10  H    0.236201
    11  H    0.151346
    12  H    0.170949
    13  H    0.163574
    14  H    0.176832
    15  H    0.166450
    16  H    0.167137
    17  H    0.160490
    18  H    0.160353
 Sum of Mulliken atomic charges =   0.00000
 Mulliken charges with hydrogens summed into heavy atoms:
              1
     1  O   -0.097291
     2  O    0.074781
     3  C   -0.056884
     4  C    0.072013
     5  C    0.029992
     6  C   -0.006171
     7  C   -0.016440
 Sum of Mulliken charges with hydrogens summed into heavy atoms =   0.00000
          Atomic-Atomic Spin Densities.
              1          2          3          4          5          6
     1  O    1.070147  -0.103981   0.000683   0.000085  -0.019149  -0.000010
     2  O   -0.103981   0.161930  -0.000108  -0.000003   0.004366   0.000001
     3  C    0.000683  -0.000108  -0.237917   0.005710   0.004063   0.000171
     4  C    0.000085  -0.000003   0.005710   0.234020  -0.002091  -0.006629
     5  C   -0.019149   0.004366   0.004063  -0.002091   0.137478   0.000081
     6  C   -0.000010   0.000001   0.000171  -0.006629   0.000081  -0.024871
     7  C    0.000000   0.000000  -0.000027  -0.005932   0.000007   0.000543
     8  H    0.000996  -0.002268   0.000000   0.000000   0.000064   0.000000
     9  H   -0.000021   0.000001   0.001788  -0.000303  -0.000441   0.000020
    10  H   -0.033881   0.004776   0.009759   0.000417   0.008499  -0.000034
    11  H    0.000880  -0.000295   0.001034  -0.000032  -0.004915  -0.000007
    12  H    0.000867  -0.000337   0.000922  -0.000164  -0.004443   0.000054
    13  H    0.000000   0.000000  -0.000004  -0.003575   0.000027   0.001726
    14  H   -0.000002  -0.000001   0.000241  -0.000620  -0.000112   0.000962
    15  H   -0.000002   0.000000   0.000053  -0.003482   0.000018   0.002069
    16  H    0.000000   0.000000   0.000294  -0.000667  -0.000001  -0.000018
    17  H    0.000000   0.000000   0.000032  -0.003704   0.000005   0.000113
    18  H    0.000000   0.000000   0.000091  -0.003648   0.000001   0.000157
              7          8          9         10         11         12
     1  O    0.000000   0.000996  -0.000021  -0.033881   0.000880   0.000867
     2  O    0.000000  -0.002268   0.000001   0.004776  -0.000295  -0.000337
     3  C   -0.000027   0.000000   0.001788   0.009759   0.001034   0.000922
     4  C   -0.005932   0.000000  -0.000303   0.000417  -0.000032  -0.000164
     5  C    0.000007   0.000064  -0.000441   0.008499  -0.004915  -0.004443
     6  C    0.000543   0.000000   0.000020  -0.000034  -0.000007   0.000054
     7  C   -0.025764   0.000000  -0.000014   0.000015   0.000002   0.000001
     8  H    0.000000  -0.007169   0.000000   0.000048  -0.000018   0.000002
     9  H   -0.000014   0.000000   0.014191  -0.000234  -0.000095   0.000011
    10  H    0.000015   0.000048  -0.000234  -0.065432   0.004243   0.003654
    11  H    0.000002  -0.000018  -0.000095   0.004243  -0.008867   0.000076
    12  H    0.000001   0.000002   0.000011   0.003654   0.000076  -0.008827
    13  H    0.000171   0.000000  -0.000003   0.000008   0.000001  -0.000006
    14  H   -0.000019   0.000000   0.000001   0.000012   0.000002   0.000040
    15  H    0.000106   0.000000   0.000001  -0.000021   0.000000   0.000001
    16  H    0.000992   0.000000  -0.000025   0.000001   0.000000   0.000000
    17  H    0.002064   0.000000  -0.000009   0.000001   0.000000   0.000000
    18  H    0.001727   0.000000   0.000017  -0.000005   0.000000   0.000000
             13         14         15         16         17         18
     1  O    0.000000  -0.000002  -0.000002   0.000000   0.000000   0.000000
     2  O    0.000000  -0.000001   0.000000   0.000000   0.000000   0.000000
     3  C   -0.000004   0.000241   0.000053   0.000294   0.000032   0.000091
     4  C   -0.003575  -0.000620  -0.003482  -0.000667  -0.003704  -0.003648
     5  C    0.000027  -0.000112   0.000018  -0.000001   0.000005   0.000001
     6  C    0.001726   0.000962   0.002069  -0.000018   0.000113   0.000157
     7  C    0.000171  -0.000019   0.000106   0.000992   0.002064   0.001727
     8  H    0.000000   0.000000   0.000000   0.000000   0.000000   0.000000
     9  H   -0.000003   0.000001   0.000001  -0.000025  -0.000009   0.000017
    10  H    0.000008   0.000012  -0.000021   0.000001   0.000001  -0.000005
    11  H    0.000001   0.000002   0.000000   0.000000   0.000000   0.000000
    12  H   -0.000006   0.000040   0.000001   0.000000   0.000000   0.000000
    13  H    0.010615  -0.000178  -0.002147  -0.000001   0.000485  -0.000187
    14  H   -0.000178   0.001000  -0.000212   0.000000   0.000001  -0.000002
    15  H   -0.002147  -0.000212   0.009694  -0.000001  -0.000195   0.000492
    16  H   -0.000001   0.000000  -0.000001   0.000953  -0.000187  -0.000210
    17  H    0.000485   0.000001  -0.000195  -0.000187   0.010358  -0.002280
    18  H   -0.000187  -0.000002   0.000492  -0.000210  -0.002280   0.010875
 Mulliken atomic spin densities:
              1
     1  O    0.916611
     2  O    0.064079
     3  C   -0.213215
     4  C    0.209382
     5  C    0.123457
     6  C   -0.025672
     7  C   -0.026127
     8  H   -0.008346
     9  H    0.014884
    10  H   -0.068174
    11  H   -0.007991
    12  H   -0.008151
    13  H    0.006931
    14  H    0.001113
    15  H    0.006374
    16  H    0.001131
    17  H    0.006684
    18  H    0.007029
 Sum of Mulliken atomic spin densities =   1.00000
 APT atomic charges:
              1
     1  O    0.132856
     2  O   -0.418105
     3  C   -0.048376
     4  C    0.053106
     5  C    0.144074
     6  C    0.111783
     7  C    0.140174
     8  H    0.320376
     9  H   -0.023438
    10  H   -0.056415
    11  H   -0.060356
    12  H   -0.037177
    13  H   -0.046966
    14  H   -0.023586
    15  H   -0.040069
    16  H   -0.034753
    17  H   -0.056326
    18  H   -0.056802
 Sum of APT charges=   0.00000
 APT Atomic charges with hydrogens summed into heavy atoms:
              1
     1  O    0.132856
     2  O   -0.097729
     3  C   -0.071814
     4  C    0.053106
     5  C   -0.009875
     6  C    0.001163
     7  C   -0.007707
     8  H    0.000000
     9  H    0.000000
    10  H    0.000000
    11  H    0.000000
    12  H    0.000000
    13  H    0.000000
    14  H    0.000000
    15  H    0.000000
    16  H    0.000000
    17  H    0.000000
    18  H    0.000000
 Sum of APT charges=   0.00000
 Electronic spatial extent (au):  <R**2>=           1356.8262
 Charge=              0.0000 electrons
 Dipole moment (field-independent basis, Debye):
    X=             -1.3253    Y=              0.6659    Z=             -1.3912  Tot=              2.0336
 Quadrupole moment (field-independent basis, Debye-Ang):
   XX=            -38.1221   YY=            -44.1838   ZZ=            -41.7582
   XY=             -3.9463   XZ=              6.7442   YZ=             -2.0965
 Traceless Quadrupole moment (field-independent basis, Debye-Ang):
   XX=              3.2325   YY=             -2.8291   ZZ=             -0.4035
   XY=             -3.9463   XZ=              6.7442   YZ=             -2.0965
 Octapole moment (field-independent basis, Debye-Ang**2):
  XXX=            -74.9793  YYY=              5.2364  ZZZ=             -9.7833  XYY=            -18.5150
  XXY=             12.3057  XXZ=            -23.7760  XZZ=            -18.6671  YZZ=              3.6995
  YYZ=             -2.8880  XYZ=              8.5127
 Hexadecapole moment (field-independent basis, Debye-Ang**3):
 XXXX=          -1043.2505 YYYY=           -253.5504 ZZZZ=           -271.0668 XXXY=            110.4940
 XXXZ=             14.8165 YYYX=            154.1450 YYYZ=             23.2570 ZZZX=            -77.0050
 ZZZY=             24.9151 XXYY=           -227.4488 XXZZ=           -216.1494 YYZZ=            -83.1900
 XXYZ=            -16.9512 YYXZ=            -17.4141 ZZXY=             42.7548
 N-N= 2.949333162525D+02 E-N=-2.090387078704D+03  KE= 5.158394064725D+02
  Exact polarizability:  67.643 -14.707  55.099   8.787  -6.015  62.763
 Approx polarizability:  51.059  -8.110  48.571   5.443  -3.830  54.341
                          Isotropic Fermi Contact Couplings
        Atom                 a.u.       MegaHertz       Gauss      10(-4) cm-1
     1  O(17)              0.17829    -108.07801     -38.56492     -36.05094
     2  O(17)              0.06253     -37.90402     -13.52510     -12.64342
     3  C(13)             -0.03762     -42.28809     -15.08944     -14.10579
     4  C(13)              0.03705      41.65036      14.86189      13.89307
     5  C(13)              0.04235      47.61288      16.98946      15.88195
     6  C(13)             -0.00861      -9.67626      -3.45273      -3.22765
     7  C(13)             -0.00882      -9.92015      -3.53976      -3.30901
     8  H(1)              -0.00453     -20.23516      -7.22041      -6.74972
     9  H(1)               0.00452      20.20472       7.20955       6.73957
    10  H(1)              -0.01446     -64.62699     -23.06052     -21.55724
    11  H(1)              -0.00292     -13.05548      -4.65852      -4.35484
    12  H(1)              -0.00289     -12.91753      -4.60929      -4.30882
    13  H(1)               0.00304      13.57960       4.84554       4.52967
    14  H(1)               0.00038       1.70284       0.60762       0.56801
    15  H(1)               0.00282      12.60561       4.49800       4.20478
    16  H(1)               0.00039       1.74906       0.62411       0.58342
    17  H(1)               0.00293      13.10071       4.67466       4.36993
    18  H(1)               0.00306      13.67344       4.87902       4.56097
 --------------------------------------------------------
       Center         ----  Spin Dipole Couplings  ----
                      3XX-RR        3YY-RR        3ZZ-RR
 --------------------------------------------------------
     1   Atom        1.443569      0.169233     -1.612802
     2   Atom        0.326017     -0.057065     -0.268952
     3   Atom       -0.021904     -0.052473      0.074377
     4   Atom        0.027630      0.058546     -0.086175
     5   Atom        0.066204     -0.010090     -0.056114
     6   Atom        0.003552     -0.000172     -0.003381
     7   Atom        0.000367     -0.001357      0.000989
     8   Atom       -0.000146     -0.005498      0.005644
     9   Atom        0.007864      0.000072     -0.007935
    10   Atom        0.081300     -0.024754     -0.056546
    11   Atom       -0.000435     -0.001475      0.001911
    12   Atom        0.001430     -0.000112     -0.001318
    13   Atom       -0.000229     -0.001266      0.001494
    14   Atom        0.001776     -0.002237      0.000461
    15   Atom        0.000685     -0.002559      0.001875
    16   Atom        0.001214     -0.000633     -0.000581
    17   Atom        0.002090     -0.000657     -0.001432
    18   Atom        0.001377      0.000304     -0.001681
 --------------------------------------------------------
                        XY            XZ            YZ
 --------------------------------------------------------
     1   Atom        2.479084     -0.772673     -0.559494
     2   Atom        0.587766     -0.122420     -0.194248
     3   Atom       -0.117990      0.012644      0.007012
     4   Atom        0.121917     -0.009587     -0.005762
     5   Atom        0.074331     -0.006081     -0.005022
     6   Atom       -0.000581      0.001479      0.000076
     7   Atom        0.001218     -0.000676      0.000801
     8   Atom       -0.018869      0.024568     -0.023674
     9   Atom       -0.004223      0.004095     -0.006386
    10   Atom        0.069307     -0.017836     -0.008514
    11   Atom        0.007797     -0.003282     -0.008751
    12   Atom        0.008590      0.002919      0.006951
    13   Atom       -0.000074      0.001015      0.000847
    14   Atom        0.000715      0.002463      0.001382
    15   Atom       -0.000747      0.001261     -0.000398
    16   Atom       -0.000530     -0.001400      0.001092
    17   Atom       -0.001674     -0.000474     -0.000067
    18   Atom       -0.002346      0.000286      0.000533
 --------------------------------------------------------


 ---------------------------------------------------------------------------------
              Anisotropic Spin Dipole Couplings in Principal Axis System
 ---------------------------------------------------------------------------------

       Atom             a.u.   MegaHertz   Gauss  10(-4) cm-1        Axes

              Baa    -1.8069   130.745    46.653    43.612  0.4297 -0.2977  0.8525
     1 O(17)  Bbb    -1.7355   125.581    44.810    41.889 -0.4588  0.7411  0.4901
              Bcc     3.5424  -256.326   -91.463   -85.501  0.7777  0.6017 -0.1819
 
              Baa    -0.5178    37.471    13.370    12.499 -0.4940  0.7864  0.3708
     2 O(17)  Bbb    -0.2777    20.097     7.171     6.704  0.3727 -0.1938  0.9075
              Bcc     0.7956   -57.568   -20.542   -19.203  0.7856  0.5865 -0.1974
 
              Baa    -0.1570   -21.063    -7.516    -7.026  0.6599  0.7491 -0.0588
     3 C(13)  Bbb     0.0726     9.743     3.477     3.250 -0.3168  0.3483  0.8823
              Bcc     0.0844    11.320     4.039     3.776  0.6813 -0.5636  0.4671
 
              Baa    -0.0880   -11.811    -4.214    -3.940  0.3112 -0.2226  0.9239
     4 C(13)  Bbb    -0.0784   -10.522    -3.755    -3.510  0.6828 -0.6238 -0.3803
              Bcc     0.1664    22.333     7.969     7.450  0.6610  0.7492 -0.0422
 
              Baa    -0.0572    -7.676    -2.739    -2.560 -0.2515  0.4860  0.8370
     5 C(13)  Bbb    -0.0548    -7.349    -2.622    -2.451 -0.4586  0.7017 -0.5452
              Bcc     0.1120    15.025     5.361     5.012  0.8523  0.5210 -0.0464
 
              Baa    -0.0037    -0.496    -0.177    -0.165 -0.2039 -0.0546  0.9775
     6 C(13)  Bbb    -0.0002    -0.032    -0.011    -0.011  0.1204  0.9895  0.0804
              Bcc     0.0039     0.527     0.188     0.176  0.9716 -0.1340  0.1952
 
              Baa    -0.0023    -0.309    -0.110    -0.103 -0.4572  0.8381 -0.2977
     7 C(13)  Bbb     0.0009     0.118     0.042     0.040  0.7151  0.5454  0.4372
              Bcc     0.0014     0.191     0.068     0.064 -0.5287  0.0130  0.8487
 
              Baa    -0.0243   -12.963    -4.626    -4.324 -0.1030  0.7374  0.6676
     8 H(1)   Bbb    -0.0211   -11.282    -4.026    -3.763  0.8207  0.4422 -0.3618
              Bcc     0.0454    24.245     8.651     8.087  0.5620 -0.5106  0.6507
 
              Baa    -0.0116    -6.192    -2.210    -2.065 -0.0883  0.4532  0.8870
     9 H(1)   Bbb    -0.0003    -0.139    -0.050    -0.046  0.5612  0.7583 -0.3316
              Bcc     0.0119     6.331     2.259     2.112  0.8229 -0.4686  0.3213
 
              Baa    -0.0592   -31.573   -11.266   -10.531 -0.4225  0.7120 -0.5609
    10 H(1)   Bbb    -0.0586   -31.269   -11.158   -10.430 -0.1666  0.5473  0.8202
              Bcc     0.1178    62.842    22.423    20.962  0.8909  0.4399 -0.1126
 
              Baa    -0.0108    -5.737    -2.047    -1.914 -0.4572  0.7827  0.4224
    11 H(1)   Bbb    -0.0027    -1.415    -0.505    -0.472  0.7399  0.0712  0.6689
              Bcc     0.0134     7.152     2.552     2.386  0.4934  0.6183 -0.6117
 
              Baa    -0.0097    -5.157    -1.840    -1.720 -0.4613  0.7545 -0.4669
    12 H(1)   Bbb    -0.0031    -1.638    -0.585    -0.546 -0.6432  0.0781  0.7617
              Bcc     0.0127     6.795     2.425     2.267  0.6111  0.6517  0.4493
 
              Baa    -0.0016    -0.861    -0.307    -0.287  0.2971  0.8922 -0.3403
    13 H(1)   Bbb    -0.0005    -0.274    -0.098    -0.091  0.8758 -0.3966 -0.2752
              Bcc     0.0021     1.135     0.405     0.379  0.3805  0.2162  0.8991
 
              Baa    -0.0028    -1.520    -0.542    -0.507  0.0999  0.8896 -0.4458
    14 H(1)   Bbb    -0.0011    -0.609    -0.217    -0.203 -0.6467  0.3985  0.6503
              Bcc     0.0040     2.129     0.760     0.710  0.7562  0.2233  0.6151
 
              Baa    -0.0027    -1.455    -0.519    -0.485  0.2036  0.9786  0.0289
    15 H(1)   Bbb    -0.0001    -0.027    -0.010    -0.009  0.8120 -0.1523 -0.5634
              Bcc     0.0028     1.482     0.529     0.494  0.5470 -0.1382  0.8257
 
              Baa    -0.0019    -0.991    -0.354    -0.331  0.2524 -0.5809  0.7738
    16 H(1)   Bbb    -0.0005    -0.250    -0.089    -0.083  0.5499  0.7442  0.3793
              Bcc     0.0023     1.241     0.443     0.414  0.7962 -0.3298 -0.5073
 
              Baa    -0.0017    -0.918    -0.328    -0.306  0.3531  0.6004  0.7175
    17 H(1)   Bbb    -0.0012    -0.639    -0.228    -0.213 -0.2467 -0.6800  0.6904
              Bcc     0.0029     1.557     0.556     0.519  0.9025 -0.4208 -0.0920
 
              Baa    -0.0022    -1.186    -0.423    -0.396 -0.4072 -0.5344  0.7407
    18 H(1)   Bbb    -0.0010    -0.548    -0.196    -0.183  0.4751  0.5686  0.6715
              Bcc     0.0032     1.734     0.619     0.578  0.7800 -0.6253 -0.0224
 

 ---------------------------------------------------------------------------------

 No NMR shielding tensors so no spin-rotation constants.
 Leave Link  601 at Tue May  1 14:28:30 2018, MaxMem=  671088640 cpu:      17.4
 (Enter /shared/apps/gaussian/G09_LINUX_LINDA/g09/l716.exe)
 Dipole        =-5.21419757D-01 2.62002975D-01-5.47348601D-01
 Polarizability= 6.76433925D+01-1.47066973D+01 5.50986793D+01
                 8.78701445D+00-6.01549196D+00 6.27627941D+01
 HyperPolar    =-1.93668572D+02-2.94358483D+01 3.58802884D+00
                -3.03232189D+01 1.21369036D+01 1.90281520D+01
                 1.67683565D+01 1.32161798D+01 1.13301166D+01
                -5.38806647D+01
 -------------------------------------------------------------------
 Center     Atomic                   Forces (Hartrees/Bohr)
 Number     Number              X              Y              Z
 -------------------------------------------------------------------
      1        8          -0.036333909   -0.013857182    0.006570853
      2        8          -0.001879170   -0.003280137   -0.000422077
      3        6           0.010045931    0.000572889    0.000704774
      4        6           0.002868158   -0.000931056    0.000379041
      5        6           0.016706576    0.013045522   -0.004212311
      6        6           0.000442798    0.000091295   -0.001601148
      7        6           0.000327056   -0.001224484    0.000702602
      8        1           0.000170951    0.000738278    0.000071371
      9        1           0.001173031   -0.000052866    0.000183971
     10        1           0.000240229    0.002373673   -0.002083247
     11        1           0.004053739    0.001983274    0.000049373
     12        1           0.001996345    0.000830369   -0.000158186
     13        1           0.000036371   -0.000055592   -0.000073546
     14        1           0.000047628    0.000022835   -0.000180583
     15        1          -0.000009097   -0.000004809   -0.000181589
     16        1           0.000059010   -0.000138696    0.000074568
     17        1           0.000007295   -0.000042935    0.000054061
     18        1           0.000047060   -0.000070377    0.000122073
 -------------------------------------------------------------------
 Cartesian Forces:  Max     0.036333909 RMS     0.006368230
 Z-matrix is all fixed cartesians, so copy forces.
 Leave Link  716 at Tue May  1 14:28:30 2018, MaxMem=  671088640 cpu:       0.4
 (Enter /shared/apps/gaussian/G09_LINUX_LINDA/g09/l9999.exe)

 This type of calculation cannot be archived.


 EVERYBODY NEEDS BEAUTY AS WELL AS BREAD, PLACES TO PLAY IN AND PRAY IN,
 WHERE NATURE MAY HEAL AND CHEER AND GIVE STRENGTH TO BODY AND SOUL ALIKE.

                                    -- JOHN MUIR
 Job cpu time:  0 days  5 hours  1 minutes 31.2 seconds.
 File lengths (MBytes):  RWF=    134 Int=      0 D2E=      0 Chk=      5 Scr=      1
 Normal termination of Gaussian 09 at Tue May  1 14:28:31 2018.
