 Entering Gaussian System, Link 0=g09
 Initial command:
 /shared/apps/gaussian/G09_LINUX_LINDA/g09/l1.exe /home/harms.n/Code/AutoTST/Gau-41060.inp -scrdir=/home/harms.n/Code/AutoTST/
 Entering Link 1 = /shared/apps/gaussian/G09_LINUX_LINDA/g09/l1.exe PID=     41061.
  
 Copyright (c) 1988,1990,1992,1993,1995,1998,2003,2009,2010,
            Gaussian, Inc.  All Rights Reserved.
  
 This is part of the Gaussian(R) 09 program.  It is based on
 the Gaussian(R) 03 system (copyright 2003, Gaussian, Inc.),
 the Gaussian(R) 98 system (copyright 1998, Gaussian, Inc.),
 the Gaussian(R) 94 system (copyright 1995, Gaussian, Inc.),
 the Gaussian 92(TM) system (copyright 1992, Gaussian, Inc.),
 the Gaussian 90(TM) system (copyright 1990, Gaussian, Inc.),
 the Gaussian 88(TM) system (copyright 1988, Gaussian, Inc.),
 the Gaussian 86(TM) system (copyright 1986, Carnegie Mellon
 University), and the Gaussian 82(TM) system (copyright 1983,
 Carnegie Mellon University). Gaussian is a federally registered
 trademark of Gaussian, Inc.
  
 This software contains proprietary and confidential information,
 including trade secrets, belonging to Gaussian, Inc.
  
 This software is provided under written license and may be
 used, copied, transmitted, or stored only in accord with that
 written license.
  
 The following legend is applicable only to US Government
 contracts under FAR:
  
                    RESTRICTED RIGHTS LEGEND
  
 Use, reproduction and disclosure by the US Government is
 subject to restrictions as set forth in subparagraphs (a)
 and (c) of the Commercial Computer Software - Restricted
 Rights clause in FAR 52.227-19.
  
 Gaussian, Inc.
 340 Quinnipiac St., Bldg. 40, Wallingford CT 06492
  
  
 ---------------------------------------------------------------
 Warning -- This program may not be used in any manner that
 competes with the business of Gaussian, Inc. or will provide
 assistance to any competitor of Gaussian, Inc.  The licensee
 of this program is prohibited from giving any competitor of
 Gaussian, Inc. access to this program.  By using this program,
 the user acknowledges that Gaussian, Inc. is engaged in the
 business of creating and licensing software in the field of
 computational chemistry and represents and warrants to the
 licensee that it is not a competitor of Gaussian, Inc. and that
 it will not use this program in any manner prohibited above.
 ---------------------------------------------------------------
  

 Cite this work as:
 Gaussian 09, Revision B.01,
 M. J. Frisch, G. W. Trucks, H. B. Schlegel, G. E. Scuseria, 
 M. A. Robb, J. R. Cheeseman, G. Scalmani, V. Barone, B. Mennucci, 
 G. A. Petersson, H. Nakatsuji, M. Caricato, X. Li, H. P. Hratchian, 
 A. F. Izmaylov, J. Bloino, G. Zheng, J. L. Sonnenberg, M. Hada, 
 M. Ehara, K. Toyota, R. Fukuda, J. Hasegawa, M. Ishida, T. Nakajima, 
 Y. Honda, O. Kitao, H. Nakai, T. Vreven, J. A. Montgomery, Jr., 
 J. E. Peralta, F. Ogliaro, M. Bearpark, J. J. Heyd, E. Brothers, 
 K. N. Kudin, V. N. Staroverov, T. Keith, R. Kobayashi, J. Normand, 
 K. Raghavachari, A. Rendell, J. C. Burant, S. S. Iyengar, J. Tomasi, 
 M. Cossi, N. Rega, J. M. Millam, M. Klene, J. E. Knox, J. B. Cross, 
 V. Bakken, C. Adamo, J. Jaramillo, R. Gomperts, R. E. Stratmann, 
 O. Yazyev, A. J. Austin, R. Cammi, C. Pomelli, J. W. Ochterski, 
 R. L. Martin, K. Morokuma, V. G. Zakrzewski, G. A. Voth, 
 P. Salvador, J. J. Dannenberg, S. Dapprich, A. D. Daniels, 
 O. Farkas, J. B. Foresman, J. V. Ortiz, J. Cioslowski, 
 and D. J. Fox, Gaussian, Inc., Wallingford CT, 2010.
 
 ******************************************
 Gaussian 09:  EM64L-G09RevB.01 12-Aug-2010
                 8-May-2018 
 ******************************************
 %nprocshared=20
 Will use up to   20 processors via shared memory.
 %mem=5GB
 ---------------------------------------------------------------
 #p m062x/6-311+g(2df,2p) opt=(verytight,gdiis) freq IOP(2/16=3)
 ---------------------------------------------------------------

 Warning!  Use of Opt=GDIIS is deprecated since it is seldom a good choice.

 1/7=1,14=-1,18=20,19=11,26=3,38=1/1,3;
 2/9=110,12=2,16=3,17=6,18=5,40=1/2;
 3/5=4,6=6,7=214,11=2,16=1,25=1,30=1,71=1,74=-55/1,2,3;
 4//1;
 5/5=2,38=5/2;
 6/7=2,8=2,9=2,10=2,28=1/1;
 7//1,2,3,16;
 1/7=1,14=-1,18=20,19=11/3(2);
 2/9=110,16=3/2;
 99//99;
 2/9=110,16=3/2;
 3/5=4,6=6,7=214,11=2,16=1,25=1,30=1,71=1,74=-55/1,2,3;
 4/5=5,16=3/1;
 5/5=2,38=5/2;
 7//1,2,3,16;
 1/7=1,14=-1,18=20,19=11/3(-5);
 2/9=110,16=3/2;
 6/7=2,8=2,9=2,10=2,19=2,28=1/1;
 99/9=1/99;
 Leave Link    1 at Tue May  8 20:39:25 2018, MaxMem=  671088640 cpu:       1.1
 (Enter /shared/apps/gaussian/G09_LINUX_LINDA/g09/l101.exe)
 ------------------------------
 Gaussian input prepared by ASE
 ------------------------------
 Symbolic Z-matrix:
 Charge =  0 Multiplicity = 2
 O                     1.01     -0.1639    0. 
 O                    -0.1631    0.4452    0. 
 H                    -0.8469   -0.2813    0. 
 
 NAtoms=      3 NQM=      3 NQMF=      0 NMic=      0 NMicF=      0 NTot=      3.
                    Isotopes and Nuclear Properties:
 (Nuclear quadrupole moments (NQMom) in fm**2, nuclear magnetic moments (NMagM)
  in nuclear magnetons)

  Atom         1           2           3
 IAtWgt=          16          16           1
 AtmWgt=  15.9949146  15.9949146   1.0078250
 NucSpn=           0           0           1
 AtZEff=   0.0000000   0.0000000   0.0000000
 NQMom=    0.0000000   0.0000000   0.0000000
 NMagM=    0.0000000   0.0000000   2.7928460
 Leave Link  101 at Tue May  8 20:39:26 2018, MaxMem=  671088640 cpu:       1.1
 (Enter /shared/apps/gaussian/G09_LINUX_LINDA/g09/l103.exe)

 GradGradGradGradGradGradGradGradGradGradGradGradGradGradGradGradGradGrad
 Berny optimization.
 Initialization pass.
                           ----------------------------
                           !    Initial Parameters    !
                           ! (Angstroms and Degrees)  !
 --------------------------                            --------------------------
 ! Name  Definition              Value          Derivative Info.                !
 --------------------------------------------------------------------------------
 ! R1    R(1,2)                  1.3218         estimate D2E/DX2                !
 ! R2    R(2,3)                  0.9977         estimate D2E/DX2                !
 ! A1    A(1,2,3)              105.8264         estimate D2E/DX2                !
 --------------------------------------------------------------------------------
 Trust Radius=3.00D-01 FncErr=1.00D-07 GrdErr=1.00D-06
 Number of steps in this run=     20 maximum allowed number of steps=    100.
 GradGradGradGradGradGradGradGradGradGradGradGradGradGradGradGradGradGrad

 Leave Link  103 at Tue May  8 20:39:26 2018, MaxMem=  671088640 cpu:       0.2
 (Enter /shared/apps/gaussian/G09_LINUX_LINDA/g09/l202.exe)
                          Input orientation:                          
 ---------------------------------------------------------------------
 Center     Atomic      Atomic             Coordinates (Angstroms)
 Number     Number       Type             X           Y           Z
 ---------------------------------------------------------------------
      1          8           0        1.010000   -0.163900    0.000000
      2          8           0       -0.163100    0.445200    0.000000
      3          1           0       -0.846900   -0.281300    0.000000
 ---------------------------------------------------------------------
                    Distance matrix (angstroms):
                    1          2          3
     1  O    0.000000
     2  O    1.321804   0.000000
     3  H    1.860608   0.997690   0.000000
 Stoichiometry    HO2(2)
 Framework group  CS[SG(HO2)]
 Deg. of freedom     3
 Full point group                 CS      NOp   2
 Largest Abelian subgroup         CS      NOp   2
 Largest concise Abelian subgroup C1      NOp   1
                         Standard orientation:                         
 ---------------------------------------------------------------------
 Center     Atomic      Atomic             Coordinates (Angstroms)
 Number     Number       Type             X           Y           Z
 ---------------------------------------------------------------------
      1          8           0        0.056463    0.715784    0.000000
      2          8           0        0.056463   -0.606020    0.000000
      3          1           0       -0.903407   -0.878114    0.000000
 ---------------------------------------------------------------------
 Rotational constants (GHZ):    597.7804800     33.9678425     32.1414596
 Leave Link  202 at Tue May  8 20:39:26 2018, MaxMem=  671088640 cpu:       1.1
 (Enter /shared/apps/gaussian/G09_LINUX_LINDA/g09/l301.exe)
 Standard basis: 6-311+G(2df,2p) (5D, 7F)
 Ernie: Thresh=  0.10000D-02 Tol=  0.10000D-05 Strict=F.
 There are    53 symmetry adapted basis functions of A'  symmetry.
 There are    24 symmetry adapted basis functions of A"  symmetry.
 Integral buffers will be    131072 words long.
 Raffenetti 2 integral format.
 Two-electron integral symmetry is turned on.
    77 basis functions,   115 primitive gaussians,    87 cartesian basis functions
     9 alpha electrons        8 beta electrons
       nuclear repulsion energy        32.1405642405 Hartrees.
 IExCor= 4336 DFT=T Ex+Corr=M062X ExCW=0 ScaHFX=  0.540000
 ScaDFX=  1.000000  1.000000  1.000000  1.000000 ScalE2=  1.000000  1.000000
 IRadAn=      0 IRanWt=     -1 IRanGd=            0 ICorTp=0
 NAtoms=    3 NActive=    3 NUniq=    3 SFac= 1.00D+00 NAtFMM=   50 NAOKFM=F Big=F
 Leave Link  301 at Tue May  8 20:39:26 2018, MaxMem=  671088640 cpu:       0.9
 (Enter /shared/apps/gaussian/G09_LINUX_LINDA/g09/l302.exe)
 NPDir=0 NMtPBC=     1 NCelOv=     1 NCel=       1 NClECP=     1 NCelD=      1
         NCelK=      1 NCelE2=     1 NClLst=     1 CellRange=     0.0.
 One-electron integrals computed using PRISM.
 NBasis=    77 RedAO= T  NBF=    53    24
 NBsUse=    77 1.00D-06 NBFU=    53    24
 Precomputing XC quadrature grid using
 IXCGrd= 2 IRadAn=           0 IRanWt=          -1 IRanGd=           0 AccXCQ= 0.00D+00.
 NRdTot=     189 NPtTot=       23968 NUsed=       25343 NTot=       25375
 NSgBfM=    87    87    87    87    87 NAtAll=     3     3.
 Leave Link  302 at Tue May  8 20:39:27 2018, MaxMem=  671088640 cpu:       8.1
 (Enter /shared/apps/gaussian/G09_LINUX_LINDA/g09/l303.exe)
 DipDrv:  MaxL=1.
 Leave Link  303 at Tue May  8 20:39:28 2018, MaxMem=  671088640 cpu:       3.3
 (Enter /shared/apps/gaussian/G09_LINUX_LINDA/g09/l401.exe)
 Harris functional with IExCor= 1009 diagonalized for initial guess.
 ExpMin= 8.45D-02 ExpMax= 8.59D+03 ExpMxC= 1.30D+03 IAcc=2 IRadAn=         0 AccDes= 0.00D+00
 HarFok:  IExCor= 1009 AccDes= 0.00D+00 IRadAn=         0 IDoV= 1
 ScaDFX=  1.000000  1.000000  1.000000  1.000000
 FoFCou: FMM=F IPFlag=           0 FMFlag=      100000 FMFlg1=           0
         NFxFlg=           0 DoJE=T BraDBF=F KetDBF=T FulRan=T
         Omega=  0.000000  0.000000  1.000000  0.000000  0.000000 ICntrl=     500 IOpCl=  0
         NMat0=    1 NMatS0=    1 NMatT0=    0 NMatD0=    1 NMtDS0=    0 NMtDT0=    0
         I1Cent=           4 NGrid=           0.
 Petite list used in FoFCou.
 Harris En= -150.800383981427    
 Initial guess orbital symmetries:
 Alpha Orbitals:
       Occupied  (A') (A') (A') (A') (A') (A') (A") (A') (A")
       Virtual   (A') (A') (A') (A") (A') (A') (A') (A") (A') (A')
                 (A') (A") (A') (A') (A') (A") (A') (A') (A") (A')
                 (A") (A') (A") (A') (A') (A') (A") (A') (A") (A')
                 (A') (A') (A') (A") (A') (A') (A") (A') (A') (A")
                 (A') (A") (A') (A') (A") (A") (A') (A') (A') (A")
                 (A") (A') (A') (A") (A") (A') (A") (A') (A") (A')
                 (A') (A') (A") (A') (A') (A') (A') (A')
 Beta  Orbitals:
       Occupied  (A') (A') (A') (A') (A') (A') (A") (A')
       Virtual   (A") (A') (A') (A') (A") (A') (A') (A') (A") (A')
                 (A') (A') (A") (A') (A') (A') (A") (A') (A') (A")
                 (A') (A") (A') (A") (A') (A') (A') (A") (A') (A")
                 (A') (A') (A') (A') (A") (A') (A') (A") (A') (A')
                 (A") (A') (A") (A') (A') (A") (A") (A') (A') (A')
                 (A") (A") (A') (A') (A") (A") (A') (A") (A') (A")
                 (A') (A') (A') (A") (A') (A') (A') (A') (A')
 The electronic state of the initial guess is 2-A".
 Initial guess <Sx>= 0.0000 <Sy>= 0.0000 <Sz>= 0.5000 <S**2>= 0.7500 S= 0.5000
 Leave Link  401 at Tue May  8 20:39:30 2018, MaxMem=  671088640 cpu:      24.7
 (Enter /shared/apps/gaussian/G09_LINUX_LINDA/g09/l502.exe)
 UHF open shell SCF:
 Requested convergence on RMS density matrix=1.00D-08 within 128 cycles.
 Requested convergence on MAX density matrix=1.00D-06.
 Requested convergence on             energy=1.00D-06.
 No special actions if energy rises.
 Using DIIS extrapolation, IDIIS=  1040.
 Integral symmetry usage will be decided dynamically.
        25303 words used for storage of precomputed grid.
 Keep R1 and R2 ints in memory in canonical form, NReq=16665976.
 IEnd=       68543 IEndB=       68543 NGot=   671088640 MDV=   656386954
 LenX=   656386954 LenY=   656378944
 Symmetry not used in FoFDir.
 MinBra= 0 MaxBra= 3 Meth= 1.
 IRaf=       0 NMat=   1 IRICut=       1 DoRegI=T DoRafI=F ISym2E= 0 JSym2E=0.
 Integral accuracy reduced to 1.0D-05 until final iterations.

 Cycle   1  Pass 0  IDiag  1:
 E= -150.875565695571    
 DIIS: error= 3.13D-02 at cycle   1 NSaved=   1.
 NSaved= 1 IEnMin= 1 EnMin= -150.875565695571     IErMin= 1 ErrMin= 3.13D-02
 ErrMax= 3.13D-02 EMaxC= 1.00D-01 BMatC= 1.85D-01 BMatP= 1.85D-01
 IDIUse=3 WtCom= 6.87D-01 WtEn= 3.13D-01
 Coeff-Com:  0.100D+01
 Coeff-En:   0.100D+01
 Coeff:      0.100D+01
 Gap=     0.382 Goal=   None    Shift=    0.000
 Gap=     0.273 Goal=   None    Shift=    0.000
 GapD=    0.273 DampG=1.000 DampE=0.500 DampFc=0.5000 IDamp=-1.
 Damping current iteration by 5.00D-01
 RMSDP=2.21D-03 MaxDP=2.95D-02              OVMax= 1.37D-01

 Cycle   2  Pass 0  IDiag  1:
 E= -150.885782581310     Delta-E=       -0.010216885739 Rises=F Damp=T
 DIIS: error= 1.46D-02 at cycle   2 NSaved=   2.
 NSaved= 2 IEnMin= 2 EnMin= -150.885782581310     IErMin= 2 ErrMin= 1.46D-02
 ErrMax= 1.46D-02 EMaxC= 1.00D-01 BMatC= 3.87D-02 BMatP= 1.85D-01
 IDIUse=3 WtCom= 8.54D-01 WtEn= 1.46D-01
 Coeff-Com: -0.221D+00 0.122D+01
 Coeff-En:   0.000D+00 0.100D+01
 Coeff:     -0.188D+00 0.119D+01
 Gap=     0.444 Goal=   None    Shift=    0.000
 Gap=     0.294 Goal=   None    Shift=    0.000
 RMSDP=9.68D-04 MaxDP=2.55D-02 DE=-1.02D-02 OVMax= 6.87D-02

 Cycle   3  Pass 0  IDiag  1:
 E= -150.893938566008     Delta-E=       -0.008155984698 Rises=F Damp=F
 DIIS: error= 1.20D-02 at cycle   3 NSaved=   3.
 NSaved= 3 IEnMin= 3 EnMin= -150.893938566008     IErMin= 3 ErrMin= 1.20D-02
 ErrMax= 1.20D-02 EMaxC= 1.00D-01 BMatC= 2.84D-02 BMatP= 3.87D-02
 IDIUse=3 WtCom= 8.80D-01 WtEn= 1.20D-01
 Coeff-Com: -0.278D+00 0.693D+00 0.585D+00
 Coeff-En:   0.000D+00 0.000D+00 0.100D+01
 Coeff:     -0.245D+00 0.610D+00 0.635D+00
 Gap=     0.428 Goal=   None    Shift=    0.000
 Gap=     0.287 Goal=   None    Shift=    0.000
 RMSDP=5.83D-04 MaxDP=1.23D-02 DE=-8.16D-03 OVMax= 5.32D-02

 Cycle   4  Pass 0  IDiag  1:
 E= -150.898453976121     Delta-E=       -0.004515410113 Rises=F Damp=F
 DIIS: error= 3.65D-03 at cycle   4 NSaved=   4.
 NSaved= 4 IEnMin= 4 EnMin= -150.898453976121     IErMin= 4 ErrMin= 3.65D-03
 ErrMax= 3.65D-03 EMaxC= 1.00D-01 BMatC= 3.96D-03 BMatP= 2.84D-02
 IDIUse=3 WtCom= 9.63D-01 WtEn= 3.65D-02
 Coeff-Com: -0.421D-01 0.732D-01 0.300D+00 0.669D+00
 Coeff-En:   0.000D+00 0.000D+00 0.609D-01 0.939D+00
 Coeff:     -0.406D-01 0.705D-01 0.291D+00 0.679D+00
 Gap=     0.429 Goal=   None    Shift=    0.000
 Gap=     0.291 Goal=   None    Shift=    0.000
 RMSDP=1.84D-04 MaxDP=4.66D-03 DE=-4.52D-03 OVMax= 7.54D-03

 Cycle   5  Pass 0  IDiag  1:
 E= -150.899134624291     Delta-E=       -0.000680648169 Rises=F Damp=F
 DIIS: error= 1.01D-03 at cycle   5 NSaved=   5.
 NSaved= 5 IEnMin= 5 EnMin= -150.899134624291     IErMin= 5 ErrMin= 1.01D-03
 ErrMax= 1.01D-03 EMaxC= 1.00D-01 BMatC= 1.38D-04 BMatP= 3.96D-03
 IDIUse=3 WtCom= 9.90D-01 WtEn= 1.01D-02
 Coeff-Com:  0.247D-01-0.664D-01 0.122D-01 0.116D+00 0.914D+00
 Coeff-En:   0.000D+00 0.000D+00 0.000D+00 0.000D+00 0.100D+01
 Coeff:      0.244D-01-0.657D-01 0.120D-01 0.115D+00 0.915D+00
 Gap=     0.432 Goal=   None    Shift=    0.000
 Gap=     0.292 Goal=   None    Shift=    0.000
 RMSDP=8.46D-05 MaxDP=1.91D-03 DE=-6.81D-04 OVMax= 9.02D-03

 Cycle   6  Pass 0  IDiag  1:
 E= -150.899223626182     Delta-E=       -0.000089001891 Rises=F Damp=F
 DIIS: error= 5.39D-04 at cycle   6 NSaved=   6.
 NSaved= 6 IEnMin= 6 EnMin= -150.899223626182     IErMin= 6 ErrMin= 5.39D-04
 ErrMax= 5.39D-04 EMaxC= 1.00D-01 BMatC= 5.08D-05 BMatP= 1.38D-04
 IDIUse=3 WtCom= 9.95D-01 WtEn= 5.39D-03
 Coeff-Com:  0.132D-01-0.205D-01-0.702D-01-0.242D+00-0.322D-02 0.132D+01
 Coeff-En:   0.000D+00 0.000D+00 0.000D+00 0.000D+00 0.000D+00 0.100D+01
 Coeff:      0.131D-01-0.204D-01-0.698D-01-0.241D+00-0.320D-02 0.132D+01
 Gap=     0.433 Goal=   None    Shift=    0.000
 Gap=     0.293 Goal=   None    Shift=    0.000
 RMSDP=8.21D-05 MaxDP=1.81D-03 DE=-8.90D-05 OVMax= 9.19D-03

 Cycle   7  Pass 0  IDiag  1:
 E= -150.899269644086     Delta-E=       -0.000046017905 Rises=F Damp=F
 DIIS: error= 1.83D-04 at cycle   7 NSaved=   7.
 NSaved= 7 IEnMin= 7 EnMin= -150.899269644086     IErMin= 7 ErrMin= 1.83D-04
 ErrMax= 1.83D-04 EMaxC= 1.00D-01 BMatC= 4.96D-06 BMatP= 5.08D-05
 IDIUse=3 WtCom= 9.98D-01 WtEn= 1.83D-03
 Coeff-Com: -0.938D-02 0.187D-01 0.397D-01 0.897D-01-0.152D+00-0.625D+00
 Coeff-Com:  0.164D+01
 Coeff-En:   0.000D+00 0.000D+00 0.000D+00 0.000D+00 0.000D+00 0.000D+00
 Coeff-En:   0.100D+01
 Coeff:     -0.937D-02 0.187D-01 0.396D-01 0.896D-01-0.151D+00-0.624D+00
 Coeff:      0.164D+01
 Gap=     0.434 Goal=   None    Shift=    0.000
 Gap=     0.293 Goal=   None    Shift=    0.000
 RMSDP=3.65D-05 MaxDP=9.94D-04 DE=-4.60D-05 OVMax= 4.12D-03

 Cycle   8  Pass 0  IDiag  1:
 E= -150.899275393610     Delta-E=       -0.000005749524 Rises=F Damp=F
 DIIS: error= 2.24D-05 at cycle   8 NSaved=   8.
 NSaved= 8 IEnMin= 8 EnMin= -150.899275393610     IErMin= 8 ErrMin= 2.24D-05
 ErrMax= 2.24D-05 EMaxC= 1.00D-01 BMatC= 1.10D-07 BMatP= 4.96D-06
 IDIUse=1 WtCom= 1.00D+00 WtEn= 0.00D+00
 Coeff-Com:  0.450D-03-0.114D-02-0.142D-02-0.216D-02 0.224D-01 0.254D-01
 Coeff-Com: -0.239D+00 0.120D+01
 Coeff:      0.450D-03-0.114D-02-0.142D-02-0.216D-02 0.224D-01 0.254D-01
 Coeff:     -0.239D+00 0.120D+01
 Gap=     0.434 Goal=   None    Shift=    0.000
 Gap=     0.293 Goal=   None    Shift=    0.000
 RMSDP=4.28D-06 MaxDP=9.65D-05 DE=-5.75D-06 OVMax= 3.61D-04

 Initial convergence to 1.0D-05 achieved.  Increase integral accuracy.
 Cycle   9  Pass 1  IDiag  1:
 E= -150.899244664489     Delta-E=        0.000030729121 Rises=F Damp=F
 DIIS: error= 9.36D-05 at cycle   1 NSaved=   1.
 NSaved= 1 IEnMin= 1 EnMin= -150.899244664489     IErMin= 1 ErrMin= 9.36D-05
 ErrMax= 9.36D-05 EMaxC= 1.00D-01 BMatC= 6.47D-06 BMatP= 6.47D-06
 IDIUse=1 WtCom= 1.00D+00 WtEn= 0.00D+00
 Coeff-Com:  0.100D+01
 Coeff:      0.100D+01
 Gap=     0.434 Goal=   None    Shift=    0.000
 Gap=     0.293 Goal=   None    Shift=    0.000
 RMSDP=4.28D-06 MaxDP=9.65D-05 DE= 3.07D-05 OVMax= 2.70D-04

 Cycle  10  Pass 1  IDiag  1:
 E= -150.899245506391     Delta-E=       -0.000000841902 Rises=F Damp=F
 DIIS: error= 1.60D-05 at cycle   2 NSaved=   2.
 NSaved= 2 IEnMin= 2 EnMin= -150.899245506391     IErMin= 2 ErrMin= 1.60D-05
 ErrMax= 1.60D-05 EMaxC= 1.00D-01 BMatC= 8.33D-08 BMatP= 6.47D-06
 IDIUse=1 WtCom= 1.00D+00 WtEn= 0.00D+00
 Coeff-Com: -0.583D-01 0.106D+01
 Coeff:     -0.583D-01 0.106D+01
 Gap=     0.434 Goal=   None    Shift=    0.000
 Gap=     0.293 Goal=   None    Shift=    0.000
 RMSDP=2.58D-06 MaxDP=3.75D-05 DE=-8.42D-07 OVMax= 8.83D-05

 Cycle  11  Pass 1  IDiag  1:
 E= -150.899245530778     Delta-E=       -0.000000024387 Rises=F Damp=F
 DIIS: error= 1.09D-05 at cycle   3 NSaved=   3.
 NSaved= 3 IEnMin= 3 EnMin= -150.899245530778     IErMin= 3 ErrMin= 1.09D-05
 ErrMax= 1.09D-05 EMaxC= 1.00D-01 BMatC= 2.74D-08 BMatP= 8.33D-08
 IDIUse=1 WtCom= 1.00D+00 WtEn= 0.00D+00
 Coeff-Com: -0.253D-01 0.344D+00 0.681D+00
 Coeff:     -0.253D-01 0.344D+00 0.681D+00
 Gap=     0.434 Goal=   None    Shift=    0.000
 Gap=     0.293 Goal=   None    Shift=    0.000
 RMSDP=7.70D-07 MaxDP=1.77D-05 DE=-2.44D-08 OVMax= 5.99D-05

 Cycle  12  Pass 1  IDiag  1:
 E= -150.899245534562     Delta-E=       -0.000000003784 Rises=F Damp=F
 DIIS: error= 1.01D-05 at cycle   4 NSaved=   4.
 NSaved= 4 IEnMin= 4 EnMin= -150.899245534562     IErMin= 4 ErrMin= 1.01D-05
 ErrMax= 1.01D-05 EMaxC= 1.00D-01 BMatC= 1.72D-08 BMatP= 2.74D-08
 IDIUse=1 WtCom= 1.00D+00 WtEn= 0.00D+00
 Coeff-Com:  0.280D-02-0.139D+00 0.452D+00 0.685D+00
 Coeff:      0.280D-02-0.139D+00 0.452D+00 0.685D+00
 Gap=     0.434 Goal=   None    Shift=    0.000
 Gap=     0.293 Goal=   None    Shift=    0.000
 RMSDP=5.35D-07 MaxDP=9.94D-06 DE=-3.78D-09 OVMax= 3.06D-05

 Cycle  13  Pass 1  IDiag  1:
 E= -150.899245538181     Delta-E=       -0.000000003619 Rises=F Damp=F
 DIIS: error= 1.65D-06 at cycle   5 NSaved=   5.
 NSaved= 5 IEnMin= 5 EnMin= -150.899245538181     IErMin= 5 ErrMin= 1.65D-06
 ErrMax= 1.65D-06 EMaxC= 1.00D-01 BMatC= 3.47D-10 BMatP= 1.72D-08
 IDIUse=1 WtCom= 1.00D+00 WtEn= 0.00D+00
 Coeff-Com:  0.206D-02-0.350D-01-0.698D-01-0.433D-01 0.115D+01
 Coeff:      0.206D-02-0.350D-01-0.698D-01-0.433D-01 0.115D+01
 Gap=     0.434 Goal=   None    Shift=    0.000
 Gap=     0.293 Goal=   None    Shift=    0.000
 RMSDP=2.27D-07 MaxDP=3.19D-06 DE=-3.62D-09 OVMax= 1.49D-05

 Cycle  14  Pass 1  IDiag  1:
 E= -150.899245538497     Delta-E=       -0.000000000316 Rises=F Damp=F
 DIIS: error= 8.29D-07 at cycle   6 NSaved=   6.
 NSaved= 6 IEnMin= 6 EnMin= -150.899245538497     IErMin= 6 ErrMin= 8.29D-07
 ErrMax= 8.29D-07 EMaxC= 1.00D-01 BMatC= 1.25D-10 BMatP= 3.47D-10
 IDIUse=1 WtCom= 1.00D+00 WtEn= 0.00D+00
 Coeff-Com:  0.161D-03 0.615D-02-0.597D-01-0.113D+00 0.335D+00 0.832D+00
 Coeff:      0.161D-03 0.615D-02-0.597D-01-0.113D+00 0.335D+00 0.832D+00
 Gap=     0.434 Goal=   None    Shift=    0.000
 Gap=     0.293 Goal=   None    Shift=    0.000
 RMSDP=8.46D-08 MaxDP=1.28D-06 DE=-3.16D-10 OVMax= 4.84D-06

 Cycle  15  Pass 1  IDiag  1:
 E= -150.899245538552     Delta-E=       -0.000000000055 Rises=F Damp=F
 DIIS: error= 3.08D-07 at cycle   7 NSaved=   7.
 NSaved= 7 IEnMin= 7 EnMin= -150.899245538552     IErMin= 7 ErrMin= 3.08D-07
 ErrMax= 3.08D-07 EMaxC= 1.00D-01 BMatC= 2.23D-11 BMatP= 1.25D-10
 IDIUse=1 WtCom= 1.00D+00 WtEn= 0.00D+00
 Coeff-Com: -0.566D-03 0.124D-01 0.921D-02-0.316D-01-0.204D+00 0.118D+00
 Coeff-Com:  0.110D+01
 Coeff:     -0.566D-03 0.124D-01 0.921D-02-0.316D-01-0.204D+00 0.118D+00
 Coeff:      0.110D+01
 Gap=     0.434 Goal=   None    Shift=    0.000
 Gap=     0.293 Goal=   None    Shift=    0.000
 RMSDP=5.37D-08 MaxDP=8.23D-07 DE=-5.52D-11 OVMax= 4.27D-06

 Cycle  16  Pass 1  IDiag  1:
 E= -150.899245538568     Delta-E=       -0.000000000016 Rises=F Damp=F
 DIIS: error= 9.57D-08 at cycle   8 NSaved=   8.
 NSaved= 8 IEnMin= 8 EnMin= -150.899245538568     IErMin= 8 ErrMin= 9.57D-08
 ErrMax= 9.57D-08 EMaxC= 1.00D-01 BMatC= 1.62D-12 BMatP= 2.23D-11
 IDIUse=1 WtCom= 1.00D+00 WtEn= 0.00D+00
 Coeff-Com:  0.925D-04-0.322D-02 0.570D-02 0.142D-01 0.163D-01-0.129D+00
 Coeff-Com: -0.227D+00 0.132D+01
 Coeff:      0.925D-04-0.322D-02 0.570D-02 0.142D-01 0.163D-01-0.129D+00
 Coeff:     -0.227D+00 0.132D+01
 Gap=     0.434 Goal=   None    Shift=    0.000
 Gap=     0.293 Goal=   None    Shift=    0.000
 RMSDP=1.80D-08 MaxDP=3.97D-07 DE=-1.56D-11 OVMax= 1.81D-06

 Cycle  17  Pass 1  IDiag  1:
 E= -150.899245538570     Delta-E=       -0.000000000002 Rises=F Damp=F
 DIIS: error= 4.90D-08 at cycle   9 NSaved=   9.
 NSaved= 9 IEnMin= 9 EnMin= -150.899245538570     IErMin= 9 ErrMin= 4.90D-08
 ErrMax= 4.90D-08 EMaxC= 1.00D-01 BMatC= 2.20D-13 BMatP= 1.62D-12
 IDIUse=1 WtCom= 1.00D+00 WtEn= 0.00D+00
 Coeff-Com:  0.289D-04-0.350D-03-0.163D-02-0.308D-02 0.175D-01 0.225D-01
 Coeff-Com: -0.368D-01-0.347D+00 0.135D+01
 Coeff:      0.289D-04-0.350D-03-0.163D-02-0.308D-02 0.175D-01 0.225D-01
 Coeff:     -0.368D-01-0.347D+00 0.135D+01
 Gap=     0.434 Goal=   None    Shift=    0.000
 Gap=     0.293 Goal=   None    Shift=    0.000
 RMSDP=5.50D-09 MaxDP=1.24D-07 DE=-1.59D-12 OVMax= 5.43D-07

 SCF Done:  E(UM062X) =  -150.899245539     A.U. after   17 cycles
             Convg  =    0.5502D-08             -V/T =  2.0029
 <Sx>= 0.0000 <Sy>= 0.0000 <Sz>= 0.5000 <S**2>= 0.7551 S= 0.5026
 <L.S>= 0.000000000000E+00
 KE= 1.504574995323D+02 PE=-4.214329184018D+02 EE= 8.793560909046D+01
 Annihilation of the first spin contaminant:
 S**2 before annihilation     0.7551,   after     0.7500
 Leave Link  502 at Tue May  8 20:40:43 2018, MaxMem=  671088640 cpu:     725.7
 (Enter /shared/apps/gaussian/G09_LINUX_LINDA/g09/l601.exe)
 Copying SCF densities to generalized density rwf, IOpCl= 1 IROHF=0.

 **********************************************************************

            Population analysis using the SCF density.

 **********************************************************************

 Orbital symmetries:
 Alpha Orbitals:
       Occupied  (A') (A') (A') (A') (A') (A") (A') (A") (A')
       Virtual   (A') (A') (A') (A") (A') (A') (A") (A') (A') (A')
                 (A') (A") (A') (A') (A') (A") (A') (A") (A') (A')
                 (A') (A") (A") (A') (A') (A') (A") (A') (A') (A")
                 (A') (A') (A') (A") (A') (A') (A") (A') (A") (A')
                 (A') (A") (A') (A") (A") (A') (A') (A') (A') (A")
                 (A") (A') (A") (A') (A") (A') (A") (A') (A") (A')
                 (A') (A') (A") (A') (A') (A') (A') (A')
 Beta  Orbitals:
       Occupied  (A') (A') (A') (A') (A') (A') (A") (A')
       Virtual   (A") (A') (A') (A') (A") (A') (A') (A") (A') (A')
                 (A') (A') (A") (A') (A') (A') (A") (A') (A') (A")
                 (A') (A') (A") (A") (A') (A') (A') (A") (A') (A')
                 (A") (A') (A') (A') (A") (A') (A') (A") (A') (A")
                 (A') (A') (A') (A") (A") (A') (A") (A') (A') (A')
                 (A") (A") (A') (A') (A") (A") (A') (A') (A") (A")
                 (A') (A') (A') (A") (A') (A') (A') (A') (A')
 The electronic state is 2-A".
 Alpha  occ. eigenvalues --  -19.75782 -19.71816  -1.34024  -0.99429  -0.65763
 Alpha  occ. eigenvalues --   -0.60031  -0.57588  -0.39549  -0.39544
 Alpha virt. eigenvalues --    0.03829   0.09789   0.14577   0.14947   0.19210
 Alpha virt. eigenvalues --    0.21036   0.22076   0.22878   0.24016   0.34451
 Alpha virt. eigenvalues --    0.45869   0.68648   0.72218   0.89008   0.95007
 Alpha virt. eigenvalues --    0.99894   1.05971   1.07598   1.08635   1.25367
 Alpha virt. eigenvalues --    1.29462   1.31303   1.46307   1.52331   1.53020
 Alpha virt. eigenvalues --    1.59236   1.80461   2.04364   2.18104   2.19179
 Alpha virt. eigenvalues --    2.26630   2.52506   2.61011   3.56321   3.71044
 Alpha virt. eigenvalues --    3.99519   4.43076   4.56104   4.64343   4.66665
 Alpha virt. eigenvalues --    4.77720   4.97108   4.98270   4.99349   5.04427
 Alpha virt. eigenvalues --    5.06039   5.11714   5.13751   5.17166   5.32183
 Alpha virt. eigenvalues --    5.50072   5.59435   6.28091   6.28879   6.63627
 Alpha virt. eigenvalues --    6.69513   6.76857   6.81880   6.84505   6.89356
 Alpha virt. eigenvalues --    6.91968   7.21934   7.23044   7.46831   7.76371
 Alpha virt. eigenvalues --    7.80237  49.89490  49.91428
  Beta  occ. eigenvalues --  -19.75049 -19.70330  -1.30685  -0.94480  -0.63888
  Beta  occ. eigenvalues --   -0.55285  -0.49793  -0.36646
  Beta virt. eigenvalues --   -0.07372   0.04285   0.10153   0.14706   0.15600
  Beta virt. eigenvalues --    0.19328   0.21341   0.22547   0.23492   0.25379
  Beta virt. eigenvalues --    0.34192   0.46119   0.68985   0.72346   0.89162
  Beta virt. eigenvalues --    0.95264   1.03386   1.06437   1.09427   1.11213
  Beta virt. eigenvalues --    1.26359   1.30762   1.33723   1.48462   1.53118
  Beta virt. eigenvalues --    1.53768   1.62586   1.81690   2.05407   2.18597
  Beta virt. eigenvalues --    2.21035   2.26869   2.53148   2.61196   3.56779
  Beta virt. eigenvalues --    3.71441   3.99396   4.46557   4.56579   4.65638
  Beta virt. eigenvalues --    4.66760   4.78487   5.00403   5.01403   5.03964
  Beta virt. eigenvalues --    5.06422   5.09411   5.12932   5.15175   5.18029
  Beta virt. eigenvalues --    5.33505   5.51280   5.60101   6.29567   6.31013
  Beta virt. eigenvalues --    6.72604   6.79909   6.81987   6.82710   6.89096
  Beta virt. eigenvalues --    6.90867   6.95379   7.22954   7.28638   7.46933
  Beta virt. eigenvalues --    7.77600   7.81154  49.89069  49.90950
          Condensed to atoms (all electrons):
              1          2          3
     1  O    8.033556   0.184948  -0.054044
     2  O    0.184948   7.696261   0.233832
     3  H   -0.054044   0.233832   0.540711
 Mulliken atomic charges:
              1
     1  O   -0.164460
     2  O   -0.115041
     3  H    0.279501
 Sum of Mulliken atomic charges =   0.00000
 Mulliken charges with hydrogens summed into heavy atoms:
              1
     1  O   -0.164460
     2  O    0.164460
 Sum of Mulliken charges with hydrogens summed into heavy atoms =   0.00000
          Atomic-Atomic Spin Densities.
              1          2          3
     1  O    0.902009  -0.147259   0.001768
     2  O   -0.147259   0.395746   0.005527
     3  H    0.001768   0.005527  -0.017827
 Mulliken atomic spin densities:
              1
     1  O    0.756517
     2  O    0.254014
     3  H   -0.010532
 Sum of Mulliken atomic spin densities =   1.00000
 Electronic spatial extent (au):  <R**2>=             54.8222
 Charge=              0.0000 electrons
 Dipole moment (field-independent basis, Debye):
    X=             -1.7806    Y=             -1.4426    Z=              0.0000  Tot=              2.2917
 Quadrupole moment (field-independent basis, Debye-Ang):
   XX=             -9.9256   YY=            -11.0196   ZZ=            -11.1244
   XY=              1.7514   XZ=              0.0000   YZ=              0.0000
 Traceless Quadrupole moment (field-independent basis, Debye-Ang):
   XX=              0.7643   YY=             -0.3298   ZZ=             -0.4345
   XY=              1.7514   XZ=              0.0000   YZ=              0.0000
 Octapole moment (field-independent basis, Debye-Ang**2):
  XXX=             -2.3191  YYY=             -1.7730  ZZZ=              0.0000  XYY=             -1.8087
  XXY=             -2.1718  XXZ=              0.0000  XZZ=             -0.1892  YZZ=              0.0903
  YYZ=              0.0000  XYZ=              0.0000
 Hexadecapole moment (field-independent basis, Debye-Ang**3):
 XXXX=             -9.5311 YYYY=            -37.0510 ZZZZ=             -8.4611 XXXY=              0.3855
 XXXZ=              0.0000 YYYX=              0.5749 YYYZ=              0.0000 ZZZX=              0.0000
 ZZZY=              0.0000 XXYY=             -7.7105 XXZZ=             -3.3007 YYZZ=             -8.0599
 XXYZ=              0.0000 YYXZ=              0.0000 ZZXY=             -0.3072
 N-N= 3.214056424046D+01 E-N=-6.253931565638D+02  KE= 2.240105735268D+02
 Symmetry A'   KE= 2.145910330374D+02
 Symmetry A"   KE= 9.419540489353D+00
                          Isotropic Fermi Contact Couplings
        Atom                 a.u.       MegaHertz       Gauss      10(-4) cm-1
     1  O(17)              0.10886     -65.99097     -23.54722     -22.01222
     2  O(17)              0.05867     -35.56258     -12.68961     -11.86240
     3  H(1)              -0.00650     -29.04933     -10.36552      -9.68981
 --------------------------------------------------------
       Center         ----  Spin Dipole Couplings  ----
                      3XX-RR        3YY-RR        3ZZ-RR
 --------------------------------------------------------
     1   Atom       -1.610644     -1.645978      3.256622
     2   Atom       -0.701506     -0.802681      1.504188
     3   Atom        0.046495     -0.020130     -0.026365
 --------------------------------------------------------
                        XY            XZ            YZ
 --------------------------------------------------------
     1   Atom       -0.007319      0.000000      0.000000
     2   Atom        0.030679      0.000000      0.000000
     3   Atom        0.039813      0.000000      0.000000
 --------------------------------------------------------


 ---------------------------------------------------------------------------------
              Anisotropic Spin Dipole Couplings in Principal Axis System
 ---------------------------------------------------------------------------------

       Atom             a.u.   MegaHertz   Gauss  10(-4) cm-1        Axes

              Baa    -1.6474   119.207    42.536    39.763  0.1951  0.9808  0.0000
     1 O(17)  Bbb    -1.6092   116.440    41.549    38.840  0.9808 -0.1951  0.0000
              Bcc     3.2566  -235.647   -84.085   -78.603  0.0000  0.0000  1.0000
 
              Baa    -0.8113    58.702    20.946    19.581 -0.2692  0.9631  0.0000
     2 O(17)  Bbb    -0.6929    50.140    17.891    16.725  0.9631  0.2692  0.0000
              Bcc     1.5042  -108.842   -38.838   -36.306  0.0000  0.0000  1.0000
 
              Baa    -0.0387   -20.664    -7.373    -6.893 -0.4232  0.9060  0.0000
     3 H(1)   Bbb    -0.0264   -14.067    -5.019    -4.692  0.0000  0.0000  1.0000
              Bcc     0.0651    34.731    12.393    11.585  0.9060  0.4232  0.0000
 

 ---------------------------------------------------------------------------------

 No NMR shielding tensors so no spin-rotation constants.
 Leave Link  601 at Tue May  8 20:40:46 2018, MaxMem=  671088640 cpu:      24.1
 (Enter /shared/apps/gaussian/G09_LINUX_LINDA/g09/l701.exe)
 Compute integral first derivatives.
 ... and contract with generalized density number  0.
 Leave Link  701 at Tue May  8 20:40:47 2018, MaxMem=  671088640 cpu:      11.6
 (Enter /shared/apps/gaussian/G09_LINUX_LINDA/g09/l702.exe)
 L702 exits ... SP integral derivatives will be done elsewhere.
 Leave Link  702 at Tue May  8 20:40:47 2018, MaxMem=  671088640 cpu:       0.2
 (Enter /shared/apps/gaussian/G09_LINUX_LINDA/g09/l703.exe)
 Compute integral first derivatives, UseDBF=F ICtDFT=           0.
 Integral derivatives from FoFDir, PRISM(SPDF).
 Calling FoFJK, ICntrl=      2127 FMM=F ISym2X=1 I1Cent= 0 IOpClX= 1 NMat=1 NMatS=1 NMatT=0.
 FoFCou: FMM=F IPFlag=           0 FMFlag=      100000 FMFlg1=         800
         NFxFlg=           0 DoJE=F BraDBF=F KetDBF=F FulRan=T
         Omega=  0.000000  0.000000  1.000000  0.000000  0.000000 ICntrl=    2127 IOpCl=  1
         NMat0=    1 NMatS0=    1 NMatT0=    0 NMatD0=    1 NMtDS0=    0 NMtDT0=    0
         I1Cent=           0 NGrid=           0.
 Petite list used in FoFCou.
 Leave Link  703 at Tue May  8 20:40:50 2018, MaxMem=  671088640 cpu:      27.9
 (Enter /shared/apps/gaussian/G09_LINUX_LINDA/g09/l716.exe)
 Dipole        =-7.00543619D-01-5.67579733D-01 6.47361444D-33
 ***** Axes restored to original set *****
 -------------------------------------------------------------------
 Center     Atomic                   Forces (Hartrees/Bohr)
 Number     Number              X              Y              Z
 -------------------------------------------------------------------
      1        8          -0.014354315    0.006852849    0.000000000
      2        8          -0.001658285   -0.022905282    0.000000000
      3        1           0.016012601    0.016052434    0.000000000
 -------------------------------------------------------------------
 Cartesian Forces:  Max     0.022905282 RMS     0.011993025
 Leave Link  716 at Tue May  8 20:40:50 2018, MaxMem=  671088640 cpu:       0.5
 (Enter /shared/apps/gaussian/G09_LINUX_LINDA/g09/l103.exe)

 GradGradGradGradGradGradGradGradGradGradGradGradGradGradGradGradGradGrad
 Berny optimization.
 Internal  Forces:  Max     0.022654107 RMS     0.015997832
 Search for a local minimum.
 Step number   1 out of a maximum of   20
 All quantities printed in internal units (Hartrees-Bohrs-Radians)
 Swaping is turned off.
 Second derivative matrix not updated -- first step.
 The second derivative matrix:
                          R1        R2        A1
           R1           0.61484
           R2           0.00000   0.48097
           A1           0.00000   0.00000   0.16000
 ITU=  0
     Eigenvalues ---    0.16000   0.48097   0.61484
 Angle between quadratic step and forces=   8.53 degrees.
 Linear search not attempted -- option 19 set.
 Iteration  1 RMS(Cart)=  0.02913332 RMS(Int)=  0.00012267
 Iteration  2 RMS(Cart)=  0.00012544 RMS(Int)=  0.00000001
 Iteration  3 RMS(Cart)=  0.00000001 RMS(Int)=  0.00000000
 ClnCor:  largest displacement from symmetrization is 4.00D-16 for atom     3.
 Variable       Old X    -DE/DX   Delta X   Delta X   Delta X     New X
                                 (Linear)    (Quad)   (Total)
    R1        2.49785  -0.01590   0.00000  -0.02587  -0.02587   2.47198
    R2        1.88536  -0.02265   0.00000  -0.04710  -0.04710   1.83826
    A1        1.84702  -0.00127   0.00000  -0.00797  -0.00797   1.83905
         Item               Value     Threshold  Converged?
 Maximum Force            0.022654     0.000002     NO 
 RMS     Force            0.015998     0.000001     NO 
 Maximum Displacement     0.036339     0.000006     NO 
 RMS     Displacement     0.029078     0.000004     NO 
 Predicted change in Energy=-7.443042D-04
 GradGradGradGradGradGradGradGradGradGradGradGradGradGradGradGradGradGrad

 Leave Link  103 at Tue May  8 20:40:51 2018, MaxMem=  671088640 cpu:       6.4
 (Enter /shared/apps/gaussian/G09_LINUX_LINDA/g09/l202.exe)
                          Input orientation:                          
 ---------------------------------------------------------------------
 Center     Atomic      Atomic             Coordinates (Angstroms)
 Number     Number       Type             X           Y           Z
 ---------------------------------------------------------------------
      1          8           0        0.994327   -0.163927    0.000000
      2          8           0       -0.166657    0.438801    0.000000
      3          1           0       -0.827670   -0.274875    0.000000
 ---------------------------------------------------------------------
                    Distance matrix (angstroms):
                    1          2          3
     1  O    0.000000
     2  O    1.308116   0.000000
     3  H    1.825373   0.972765   0.000000
 Stoichiometry    HO2(2)
 Framework group  CS[SG(HO2)]
 Deg. of freedom     3
 Full point group                 CS      NOp   2
 Largest Abelian subgroup         CS      NOp   2
 Largest concise Abelian subgroup C1      NOp   1
                         Standard orientation:                         
 ---------------------------------------------------------------------
 Center     Atomic      Atomic             Coordinates (Angstroms)
 Number     Number       Type             X           Y           Z
 ---------------------------------------------------------------------
      1          8           0        0.055175    0.707698    0.000000
      2          8           0        0.055175   -0.600417    0.000000
      3          1           0       -0.882799   -0.858249    0.000000
 ---------------------------------------------------------------------
 Rotational constants (GHZ):    625.0210281     34.7376530     32.9086441
 Leave Link  202 at Tue May  8 20:40:51 2018, MaxMem=  671088640 cpu:       1.0
 (Enter /shared/apps/gaussian/G09_LINUX_LINDA/g09/l301.exe)
 Standard basis: 6-311+G(2df,2p) (5D, 7F)
 Ernie: Thresh=  0.10000D-02 Tol=  0.10000D-05 Strict=F.
 There are    53 symmetry adapted basis functions of A'  symmetry.
 There are    24 symmetry adapted basis functions of A"  symmetry.
 Integral buffers will be    131072 words long.
 Raffenetti 2 integral format.
 Two-electron integral symmetry is turned on.
    77 basis functions,   115 primitive gaussians,    87 cartesian basis functions
     9 alpha electrons        8 beta electrons
       nuclear repulsion energy        32.5613274398 Hartrees.
 IExCor= 4336 DFT=T Ex+Corr=M062X ExCW=0 ScaHFX=  0.540000
 ScaDFX=  1.000000  1.000000  1.000000  1.000000 ScalE2=  1.000000  1.000000
 IRadAn=      0 IRanWt=     -1 IRanGd=            0 ICorTp=0
 NAtoms=    3 NActive=    3 NUniq=    3 SFac= 1.00D+00 NAtFMM=   50 NAOKFM=F Big=F
 Leave Link  301 at Tue May  8 20:40:51 2018, MaxMem=  671088640 cpu:       0.9
 (Enter /shared/apps/gaussian/G09_LINUX_LINDA/g09/l302.exe)
 NPDir=0 NMtPBC=     1 NCelOv=     1 NCel=       1 NClECP=     1 NCelD=      1
         NCelK=      1 NCelE2=     1 NClLst=     1 CellRange=     0.0.
 One-electron integrals computed using PRISM.
 NBasis=    77 RedAO= T  NBF=    53    24
 NBsUse=    77 1.00D-06 NBFU=    53    24
 Precomputing XC quadrature grid using
 IXCGrd= 2 IRadAn=           0 IRanWt=          -1 IRanGd=           0 AccXCQ= 0.00D+00.
 NRdTot=     189 NPtTot=       23968 NUsed=       25343 NTot=       25375
 NSgBfM=    87    87    87    87    87 NAtAll=     3     3.
 Leave Link  302 at Tue May  8 20:40:52 2018, MaxMem=  671088640 cpu:       8.7
 (Enter /shared/apps/gaussian/G09_LINUX_LINDA/g09/l303.exe)
 DipDrv:  MaxL=1.
 Leave Link  303 at Tue May  8 20:40:53 2018, MaxMem=  671088640 cpu:       2.8
 (Enter /shared/apps/gaussian/G09_LINUX_LINDA/g09/l401.exe)
 Initial guess read from the read-write file.
 B after Tr=     0.000000    0.000000    0.000000
         Rot=    1.000000    0.000000    0.000000    0.000000 Ang=   0.00 deg.
 Guess basis will be translated and rotated to current coordinates.
 Initial guess orbital symmetries:
 Alpha Orbitals:
       Occupied  (A') (A') (A') (A') (A') (A") (A') (A") (A')
       Virtual   (A') (A') (A') (A") (A') (A') (A") (A') (A') (A')
                 (A') (A") (A') (A') (A') (A") (A') (A") (A') (A')
                 (A') (A") (A") (A') (A') (A') (A") (A') (A') (A")
                 (A') (A') (A') (A") (A') (A') (A") (A') (A") (A')
                 (A') (A") (A') (A") (A") (A') (A') (A') (A') (A")
                 (A") (A') (A") (A') (A") (A') (A") (A') (A") (A')
                 (A') (A') (A") (A') (A') (A') (A') (A')
 Beta  Orbitals:
       Occupied  (A') (A') (A') (A') (A') (A') (A") (A')
       Virtual   (A") (A') (A') (A') (A") (A') (A') (A") (A') (A')
                 (A') (A') (A") (A') (A') (A') (A") (A') (A') (A")
                 (A') (A') (A") (A") (A') (A') (A') (A") (A') (A')
                 (A") (A') (A') (A') (A") (A') (A') (A") (A') (A")
                 (A') (A') (A') (A") (A") (A') (A") (A') (A') (A')
                 (A") (A") (A') (A') (A") (A") (A') (A') (A") (A")
                 (A') (A') (A') (A") (A') (A') (A') (A') (A')
 The electronic state of the initial guess is 2-A".
 Initial guess <Sx>= 0.0000 <Sy>= 0.0000 <Sz>= 0.5000 <S**2>= 0.7551 S= 0.5026
 Generating alternative initial guess.
 Harris functional with IExCor= 1009 diagonalized for initial guess.
 ExpMin= 8.45D-02 ExpMax= 8.59D+03 ExpMxC= 1.30D+03 IAcc=2 IRadAn=         0 AccDes= 0.00D+00
 HarFok:  IExCor= 1009 AccDes= 0.00D+00 IRadAn=         0 IDoV= 1
 ScaDFX=  1.000000  1.000000  1.000000  1.000000
 FoFCou: FMM=F IPFlag=           0 FMFlag=      100000 FMFlg1=           0
         NFxFlg=           0 DoJE=T BraDBF=F KetDBF=T FulRan=T
         Omega=  0.000000  0.000000  1.000000  0.000000  0.000000 ICntrl=     500 IOpCl=  0
         NMat0=    1 NMatS0=    1 NMatT0=    0 NMatD0=    1 NMtDS0=    0 NMtDT0=    0
         I1Cent=           4 NGrid=           0.
 Petite list used in FoFCou.
 Harris En= -150.799797732015    
 Leave Link  401 at Tue May  8 20:40:56 2018, MaxMem=  671088640 cpu:      37.9
 (Enter /shared/apps/gaussian/G09_LINUX_LINDA/g09/l502.exe)
 UHF open shell SCF:
 Requested convergence on RMS density matrix=1.00D-08 within 128 cycles.
 Requested convergence on MAX density matrix=1.00D-06.
 Requested convergence on             energy=1.00D-06.
 No special actions if energy rises.
 Using DIIS extrapolation, IDIIS=  1040.
 Integral symmetry usage will be decided dynamically.
        25303 words used for storage of precomputed grid.
 Keep R1 and R2 ints in memory in canonical form, NReq=16665976.
 IEnd=       68543 IEndB=       68543 NGot=   671088640 MDV=   656386954
 LenX=   656386954 LenY=   656378944
 Symmetry not used in FoFDir.
 MinBra= 0 MaxBra= 3 Meth= 1.
 IRaf=       0 NMat=   1 IRICut=       1 DoRegI=T DoRafI=F ISym2E= 0 JSym2E=0.
 Integral accuracy reduced to 1.0D-05 until final iterations.

 Cycle   1  Pass 0  IDiag  1:
 E= -150.899817694422    
 DIIS: error= 1.89D-03 at cycle   1 NSaved=   1.
 NSaved= 1 IEnMin= 1 EnMin= -150.899817694422     IErMin= 1 ErrMin= 1.89D-03
 ErrMax= 1.89D-03 EMaxC= 1.00D-01 BMatC= 1.34D-03 BMatP= 1.34D-03
 IDIUse=3 WtCom= 9.81D-01 WtEn= 1.89D-02
 Coeff-Com:  0.100D+01
 Coeff-En:   0.100D+01
 Coeff:      0.100D+01
 Gap=     0.455 Goal=   None    Shift=    0.000
 Gap=     0.295 Goal=   None    Shift=    0.000
 GapD=    0.295 DampG=1.000 DampE=1.000 DampFc=1.0000 IDamp=-1.
 RMSDP=2.60D-04 MaxDP=3.34D-03              OVMax= 4.82D-03

 Cycle   2  Pass 0  IDiag  1:
 E= -150.900044464754     Delta-E=       -0.000226770333 Rises=F Damp=F
 DIIS: error= 7.42D-04 at cycle   2 NSaved=   2.
 NSaved= 2 IEnMin= 2 EnMin= -150.900044464754     IErMin= 2 ErrMin= 7.42D-04
 ErrMax= 7.42D-04 EMaxC= 1.00D-01 BMatC= 1.96D-04 BMatP= 1.34D-03
 IDIUse=3 WtCom= 9.93D-01 WtEn= 7.42D-03
 Coeff-Com:  0.172D+00 0.828D+00
 Coeff-En:   0.000D+00 0.100D+01
 Coeff:      0.171D+00 0.829D+00
 Gap=     0.436 Goal=   None    Shift=    0.000
 Gap=     0.295 Goal=   None    Shift=    0.000
 RMSDP=7.93D-05 MaxDP=2.34D-03 DE=-2.27D-04 OVMax= 4.97D-03

 Cycle   3  Pass 0  IDiag  1:
 E= -150.900051044964     Delta-E=       -0.000006580209 Rises=F Damp=F
 DIIS: error= 6.98D-04 at cycle   3 NSaved=   3.
 NSaved= 3 IEnMin= 3 EnMin= -150.900051044964     IErMin= 3 ErrMin= 6.98D-04
 ErrMax= 6.98D-04 EMaxC= 1.00D-01 BMatC= 1.86D-04 BMatP= 1.96D-04
 IDIUse=3 WtCom= 9.93D-01 WtEn= 6.98D-03
 Coeff-Com: -0.135D-01 0.494D+00 0.519D+00
 Coeff-En:   0.000D+00 0.448D+00 0.552D+00
 Coeff:     -0.135D-01 0.494D+00 0.520D+00
 Gap=     0.436 Goal=   None    Shift=    0.000
 Gap=     0.294 Goal=   None    Shift=    0.000
 RMSDP=4.01D-05 MaxDP=8.16D-04 DE=-6.58D-06 OVMax= 2.07D-03

 Cycle   4  Pass 0  IDiag  1:
 E= -150.900079945470     Delta-E=       -0.000028900507 Rises=F Damp=F
 DIIS: error= 2.10D-04 at cycle   4 NSaved=   4.
 NSaved= 4 IEnMin= 4 EnMin= -150.900079945470     IErMin= 4 ErrMin= 2.10D-04
 ErrMax= 2.10D-04 EMaxC= 1.00D-01 BMatC= 5.68D-06 BMatP= 1.86D-04
 IDIUse=3 WtCom= 9.98D-01 WtEn= 2.10D-03
 Coeff-Com: -0.200D-01 0.115D+00 0.195D+00 0.710D+00
 Coeff-En:   0.000D+00 0.000D+00 0.000D+00 0.100D+01
 Coeff:     -0.200D-01 0.115D+00 0.195D+00 0.711D+00
 Gap=     0.436 Goal=   None    Shift=    0.000
 Gap=     0.294 Goal=   None    Shift=    0.000
 RMSDP=1.11D-05 MaxDP=2.40D-04 DE=-2.89D-05 OVMax= 8.48D-04

 Cycle   5  Pass 0  IDiag  1:
 E= -150.900081196192     Delta-E=       -0.000001250722 Rises=F Damp=F
 DIIS: error= 4.42D-05 at cycle   5 NSaved=   5.
 NSaved= 5 IEnMin= 5 EnMin= -150.900081196192     IErMin= 5 ErrMin= 4.42D-05
 ErrMax= 4.42D-05 EMaxC= 1.00D-01 BMatC= 7.03D-07 BMatP= 5.68D-06
 IDIUse=1 WtCom= 1.00D+00 WtEn= 0.00D+00
 Coeff-Com: -0.372D-02-0.202D-01-0.117D-01 0.230D+00 0.806D+00
 Coeff:     -0.372D-02-0.202D-01-0.117D-01 0.230D+00 0.806D+00
 Gap=     0.436 Goal=   None    Shift=    0.000
 Gap=     0.294 Goal=   None    Shift=    0.000
 RMSDP=5.32D-06 MaxDP=9.72D-05 DE=-1.25D-06 OVMax= 2.61D-04

 Initial convergence to 1.0D-05 achieved.  Increase integral accuracy.
 Cycle   6  Pass 1  IDiag  1:
 E= -150.900040806646     Delta-E=        0.000040389546 Rises=F Damp=F
 DIIS: error= 9.79D-05 at cycle   1 NSaved=   1.
 NSaved= 1 IEnMin= 1 EnMin= -150.900040806646     IErMin= 1 ErrMin= 9.79D-05
 ErrMax= 9.79D-05 EMaxC= 1.00D-01 BMatC= 6.59D-06 BMatP= 6.59D-06
 IDIUse=1 WtCom= 1.00D+00 WtEn= 0.00D+00
 Coeff-Com:  0.100D+01
 Coeff:      0.100D+01
 Gap=     0.436 Goal=   None    Shift=    0.000
 Gap=     0.294 Goal=   None    Shift=    0.000
 RMSDP=5.32D-06 MaxDP=9.72D-05 DE= 4.04D-05 OVMax= 2.64D-04

 Cycle   7  Pass 1  IDiag  1:
 E= -150.900041681488     Delta-E=       -0.000000874842 Rises=F Damp=F
 DIIS: error= 3.12D-05 at cycle   2 NSaved=   2.
 NSaved= 2 IEnMin= 2 EnMin= -150.900041681488     IErMin= 2 ErrMin= 3.12D-05
 ErrMax= 3.12D-05 EMaxC= 1.00D-01 BMatC= 1.50D-07 BMatP= 6.59D-06
 IDIUse=1 WtCom= 1.00D+00 WtEn= 0.00D+00
 Coeff-Com: -0.380D-01 0.104D+01
 Coeff:     -0.380D-01 0.104D+01
 Gap=     0.436 Goal=   None    Shift=    0.000
 Gap=     0.294 Goal=   None    Shift=    0.000
 RMSDP=3.30D-06 MaxDP=5.78D-05 DE=-8.75D-07 OVMax= 2.43D-04

 Cycle   8  Pass 1  IDiag  1:
 E= -150.900041699176     Delta-E=       -0.000000017688 Rises=F Damp=F
 DIIS: error= 3.48D-05 at cycle   3 NSaved=   3.
 NSaved= 3 IEnMin= 3 EnMin= -150.900041699176     IErMin= 2 ErrMin= 3.12D-05
 ErrMax= 3.48D-05 EMaxC= 1.00D-01 BMatC= 2.59D-07 BMatP= 1.50D-07
 IDIUse=1 WtCom= 1.00D+00 WtEn= 0.00D+00
 Coeff-Com: -0.407D-01 0.626D+00 0.415D+00
 Coeff:     -0.407D-01 0.626D+00 0.415D+00
 Gap=     0.436 Goal=   None    Shift=    0.000
 Gap=     0.294 Goal=   None    Shift=    0.000
 RMSDP=1.38D-06 MaxDP=2.98D-05 DE=-1.77D-08 OVMax= 6.60D-05

 Cycle   9  Pass 1  IDiag  1:
 E= -150.900041740735     Delta-E=       -0.000000041559 Rises=F Damp=F
 DIIS: error= 9.21D-06 at cycle   4 NSaved=   4.
 NSaved= 4 IEnMin= 4 EnMin= -150.900041740735     IErMin= 4 ErrMin= 9.21D-06
 ErrMax= 9.21D-06 EMaxC= 1.00D-01 BMatC= 6.33D-09 BMatP= 1.50D-07
 IDIUse=1 WtCom= 1.00D+00 WtEn= 0.00D+00
 Coeff-Com:  0.615D-02-0.194D+00-0.746D-01 0.126D+01
 Coeff:      0.615D-02-0.194D+00-0.746D-01 0.126D+01
 Gap=     0.436 Goal=   None    Shift=    0.000
 Gap=     0.294 Goal=   None    Shift=    0.000
 RMSDP=9.37D-07 MaxDP=1.76D-05 DE=-4.16D-08 OVMax= 8.47D-05

 Cycle  10  Pass 1  IDiag  1:
 E= -150.900041747518     Delta-E=       -0.000000006782 Rises=F Damp=F
 DIIS: error= 5.00D-06 at cycle   5 NSaved=   5.
 NSaved= 5 IEnMin= 5 EnMin= -150.900041747518     IErMin= 5 ErrMin= 5.00D-06
 ErrMax= 5.00D-06 EMaxC= 1.00D-01 BMatC= 2.97D-09 BMatP= 6.33D-09
 IDIUse=1 WtCom= 1.00D+00 WtEn= 0.00D+00
 Coeff-Com:  0.652D-02-0.120D+00-0.113D+00 0.337D+00 0.890D+00
 Coeff:      0.652D-02-0.120D+00-0.113D+00 0.337D+00 0.890D+00
 Gap=     0.436 Goal=   None    Shift=    0.000
 Gap=     0.294 Goal=   None    Shift=    0.000
 RMSDP=4.21D-07 MaxDP=7.72D-06 DE=-6.78D-09 OVMax= 3.02D-05

 Cycle  11  Pass 1  IDiag  1:
 E= -150.900041749121     Delta-E=       -0.000000001604 Rises=F Damp=F
 DIIS: error= 1.74D-06 at cycle   6 NSaved=   6.
 NSaved= 6 IEnMin= 6 EnMin= -150.900041749121     IErMin= 6 ErrMin= 1.74D-06
 ErrMax= 1.74D-06 EMaxC= 1.00D-01 BMatC= 5.89D-10 BMatP= 2.97D-09
 IDIUse=1 WtCom= 1.00D+00 WtEn= 0.00D+00
 Coeff-Com: -0.450D-03 0.372D-01-0.240D-01-0.305D+00 0.139D+00 0.115D+01
 Coeff:     -0.450D-03 0.372D-01-0.240D-01-0.305D+00 0.139D+00 0.115D+01
 Gap=     0.436 Goal=   None    Shift=    0.000
 Gap=     0.294 Goal=   None    Shift=    0.000
 RMSDP=3.13D-07 MaxDP=6.29D-06 DE=-1.60D-09 OVMax= 2.85D-05

 Cycle  12  Pass 1  IDiag  1:
 E= -150.900041749646     Delta-E=       -0.000000000525 Rises=F Damp=F
 DIIS: error= 4.70D-07 at cycle   7 NSaved=   7.
 NSaved= 7 IEnMin= 7 EnMin= -150.900041749646     IErMin= 7 ErrMin= 4.70D-07
 ErrMax= 4.70D-07 EMaxC= 1.00D-01 BMatC= 4.85D-11 BMatP= 5.89D-10
 IDIUse=1 WtCom= 1.00D+00 WtEn= 0.00D+00
 Coeff-Com: -0.765D-03 0.169D-01 0.118D-01-0.241D-01-0.142D+00-0.546D-01
 Coeff-Com:  0.119D+01
 Coeff:     -0.765D-03 0.169D-01 0.118D-01-0.241D-01-0.142D+00-0.546D-01
 Coeff:      0.119D+01
 Gap=     0.436 Goal=   None    Shift=    0.000
 Gap=     0.294 Goal=   None    Shift=    0.000
 RMSDP=9.05D-08 MaxDP=2.25D-06 DE=-5.25D-10 OVMax= 9.24D-06

 Cycle  13  Pass 1  IDiag  1:
 E= -150.900041749691     Delta-E=       -0.000000000045 Rises=F Damp=F
 DIIS: error= 1.85D-07 at cycle   8 NSaved=   8.
 NSaved= 8 IEnMin= 8 EnMin= -150.900041749691     IErMin= 8 ErrMin= 1.85D-07
 ErrMax= 1.85D-07 EMaxC= 1.00D-01 BMatC= 4.72D-12 BMatP= 4.85D-11
 IDIUse=1 WtCom= 1.00D+00 WtEn= 0.00D+00
 Coeff-Com:  0.104D-03-0.401D-02-0.120D-02 0.342D-01-0.110D-01-0.950D-01
 Coeff-Com: -0.645D-01 0.114D+01
 Coeff:      0.104D-03-0.401D-02-0.120D-02 0.342D-01-0.110D-01-0.950D-01
 Coeff:     -0.645D-01 0.114D+01
 Gap=     0.436 Goal=   None    Shift=    0.000
 Gap=     0.294 Goal=   None    Shift=    0.000
 RMSDP=2.10D-08 MaxDP=4.20D-07 DE=-4.46D-11 OVMax= 1.86D-06

 Cycle  14  Pass 1  IDiag  1:
 E= -150.900041749694     Delta-E=       -0.000000000003 Rises=F Damp=F
 DIIS: error= 5.46D-08 at cycle   9 NSaved=   9.
 NSaved= 9 IEnMin= 9 EnMin= -150.900041749694     IErMin= 9 ErrMin= 5.46D-08
 ErrMax= 5.46D-08 EMaxC= 1.00D-01 BMatC= 3.96D-13 BMatP= 4.72D-12
 IDIUse=1 WtCom= 1.00D+00 WtEn= 0.00D+00
 Coeff-Com:  0.754D-04-0.154D-02-0.166D-02 0.226D-02 0.997D-02 0.103D-01
 Coeff-Com: -0.908D-01-0.110D+00 0.118D+01
 Coeff:      0.754D-04-0.154D-02-0.166D-02 0.226D-02 0.997D-02 0.103D-01
 Coeff:     -0.908D-01-0.110D+00 0.118D+01
 Gap=     0.436 Goal=   None    Shift=    0.000
 Gap=     0.294 Goal=   None    Shift=    0.000
 RMSDP=6.81D-09 MaxDP=1.28D-07 DE=-2.96D-12 OVMax= 6.10D-07

 SCF Done:  E(UM062X) =  -150.900041750     A.U. after   14 cycles
             Convg  =    0.6810D-08             -V/T =  2.0024
 <Sx>= 0.0000 <Sy>= 0.0000 <Sz>= 0.5000 <S**2>= 0.7550 S= 0.5025
 <L.S>= 0.000000000000E+00
 KE= 1.505338405853D+02 PE=-4.222981415723D+02 EE= 8.830293179753D+01
 Annihilation of the first spin contaminant:
 S**2 before annihilation     0.7550,   after     0.7500
 Leave Link  502 at Tue May  8 20:42:00 2018, MaxMem=  671088640 cpu:     634.4
 (Enter /shared/apps/gaussian/G09_LINUX_LINDA/g09/l701.exe)
 Compute integral first derivatives.
 ... and contract with generalized density number  0.
 Leave Link  701 at Tue May  8 20:42:02 2018, MaxMem=  671088640 cpu:      12.5
 (Enter /shared/apps/gaussian/G09_LINUX_LINDA/g09/l702.exe)
 L702 exits ... SP integral derivatives will be done elsewhere.
 Leave Link  702 at Tue May  8 20:42:02 2018, MaxMem=  671088640 cpu:       0.2
 (Enter /shared/apps/gaussian/G09_LINUX_LINDA/g09/l703.exe)
 Compute integral first derivatives, UseDBF=F ICtDFT=           0.
 Integral derivatives from FoFDir, PRISM(SPDF).
 Calling FoFJK, ICntrl=      2127 FMM=F ISym2X=1 I1Cent= 0 IOpClX= 1 NMat=1 NMatS=1 NMatT=0.
 FoFCou: FMM=F IPFlag=           0 FMFlag=      100000 FMFlg1=         800
         NFxFlg=           0 DoJE=F BraDBF=F KetDBF=F FulRan=T
         Omega=  0.000000  0.000000  1.000000  0.000000  0.000000 ICntrl=    2127 IOpCl=  1
         NMat0=    1 NMatS0=    1 NMatT0=    0 NMatD0=    1 NMtDS0=    0 NMtDT0=    0
         I1Cent=           0 NGrid=           0.
 Petite list used in FoFCou.
 Leave Link  703 at Tue May  8 20:42:04 2018, MaxMem=  671088640 cpu:      23.5
 (Enter /shared/apps/gaussian/G09_LINUX_LINDA/g09/l716.exe)
 Dipole        =-6.91158569D-01-5.69404327D-01-5.76321911D-33
 ***** Axes restored to original set *****
 -------------------------------------------------------------------
 Center     Atomic                   Forces (Hartrees/Bohr)
 Number     Number              X              Y              Z
 -------------------------------------------------------------------
      1        8          -0.000991036    0.001594751    0.000000000
      2        8           0.001314527   -0.003196787    0.000000000
      3        1          -0.000323491    0.001602036    0.000000000
 -------------------------------------------------------------------
 Cartesian Forces:  Max     0.003196787 RMS     0.001419858
 Leave Link  716 at Tue May  8 20:42:04 2018, MaxMem=  671088640 cpu:       0.3
 (Enter /shared/apps/gaussian/G09_LINUX_LINDA/g09/l103.exe)

 GradGradGradGradGradGradGradGradGradGradGradGradGradGradGradGradGradGrad
 Berny optimization.
 Using GDIIS optimizer.
 Internal  Forces:  Max     0.002412333 RMS     0.001764684
 Search for a local minimum.
 Step number   2 out of a maximum of   20
 All quantities printed in internal units (Hartrees-Bohrs-Radians)
 Swaping is turned off.
 Update second derivatives using D2CorX and points    1    2
 DE= -7.96D-04 DEPred=-7.44D-04 R= 1.07D+00
 SS=  1.41D+00  RLast= 5.43D-02 DXNew= 5.0454D-01 1.6297D-01
 Trust test= 1.07D+00 RLast= 5.43D-02 DXMaxT set to 3.00D-01
 The second derivative matrix:
                          R1        R2        A1
           R1           0.58848
           R2          -0.02388   0.46771
           A1           0.02344   0.03691   0.16847
 ITU=  1  0
     Eigenvalues ---    0.16238   0.46863   0.59366
 DIIS coeff's:      1.04738     -0.04738
 Cosine:  1.000 >  0.970
 Length:  1.000
 GDIIS step was calculated using  2 of the last  2 vectors.
 Iteration  1 RMS(Cart)=  0.00916855 RMS(Int)=  0.00005759
 Iteration  2 RMS(Cart)=  0.00005660 RMS(Int)=  0.00000000
 Iteration  3 RMS(Cart)=  0.00000000 RMS(Int)=  0.00000000
 ClnCor:  largest displacement from symmetrization is 6.66D-16 for atom     3.
 Variable       Old X    -DE/DX   Delta X   Delta X   Delta X     New X
                                  (DIIS)     (GDIIS)  (Total)
    R1        2.47198  -0.00162  -0.00123  -0.00229  -0.00351   2.46847
    R2        1.83826  -0.00095  -0.00223  -0.00120  -0.00343   1.83483
    A1        1.83905   0.00241  -0.00038   0.01594   0.01556   1.85461
         Item               Value     Threshold  Converged?
 Maximum Force            0.002412     0.000002     NO 
 RMS     Force            0.001765     0.000001     NO 
 Maximum Displacement     0.009726     0.000006     NO 
 RMS     Displacement     0.009141     0.000004     NO 
 Predicted change in Energy=-2.323995D-05
 GradGradGradGradGradGradGradGradGradGradGradGradGradGradGradGradGradGrad

 Leave Link  103 at Tue May  8 20:42:05 2018, MaxMem=  671088640 cpu:       8.6
 (Enter /shared/apps/gaussian/G09_LINUX_LINDA/g09/l202.exe)
                          Input orientation:                          
 ---------------------------------------------------------------------
 Center     Atomic      Atomic             Coordinates (Angstroms)
 Number     Number       Type             X           Y           Z
 ---------------------------------------------------------------------
      1          8           0        0.997452   -0.161380    0.000000
      2          8           0       -0.165408    0.433654    0.000000
      3          1           0       -0.832044   -0.272275    0.000000
 ---------------------------------------------------------------------
                    Distance matrix (angstroms):
                    1          2          3
     1  O    0.000000
     2  O    1.306257   0.000000
     3  H    1.832853   0.970948   0.000000
 Stoichiometry    HO2(2)
 Framework group  CS[SG(HO2)]
 Deg. of freedom     3
 Full point group                 CS      NOp   2
 Largest Abelian subgroup         CS      NOp   2
 Largest concise Abelian subgroup C1      NOp   1
                         Standard orientation:                         
 ---------------------------------------------------------------------
 Center     Atomic      Atomic             Coordinates (Angstroms)
 Number     Number       Type             X           Y           Z
 ---------------------------------------------------------------------
      1          8           0        0.054830    0.707541    0.000000
      2          8           0        0.054830   -0.598716    0.000000
      3          1           0       -0.877274   -0.870602    0.000000
 ---------------------------------------------------------------------
 Rotational constants (GHZ):    634.0889320     34.7722184     32.9645082
 Leave Link  202 at Tue May  8 20:42:05 2018, MaxMem=  671088640 cpu:       1.1
 (Enter /shared/apps/gaussian/G09_LINUX_LINDA/g09/l301.exe)
 Standard basis: 6-311+G(2df,2p) (5D, 7F)
 Ernie: Thresh=  0.10000D-02 Tol=  0.10000D-05 Strict=F.
 There are    53 symmetry adapted basis functions of A'  symmetry.
 There are    24 symmetry adapted basis functions of A"  symmetry.
 Integral buffers will be    131072 words long.
 Raffenetti 2 integral format.
 Two-electron integral symmetry is turned on.
    77 basis functions,   115 primitive gaussians,    87 cartesian basis functions
     9 alpha electrons        8 beta electrons
       nuclear repulsion energy        32.5968401208 Hartrees.
 IExCor= 4336 DFT=T Ex+Corr=M062X ExCW=0 ScaHFX=  0.540000
 ScaDFX=  1.000000  1.000000  1.000000  1.000000 ScalE2=  1.000000  1.000000
 IRadAn=      0 IRanWt=     -1 IRanGd=            0 ICorTp=0
 NAtoms=    3 NActive=    3 NUniq=    3 SFac= 1.00D+00 NAtFMM=   50 NAOKFM=F Big=F
 Leave Link  301 at Tue May  8 20:42:06 2018, MaxMem=  671088640 cpu:       0.9
 (Enter /shared/apps/gaussian/G09_LINUX_LINDA/g09/l302.exe)
 NPDir=0 NMtPBC=     1 NCelOv=     1 NCel=       1 NClECP=     1 NCelD=      1
         NCelK=      1 NCelE2=     1 NClLst=     1 CellRange=     0.0.
 One-electron integrals computed using PRISM.
 NBasis=    77 RedAO= T  NBF=    53    24
 NBsUse=    77 1.00D-06 NBFU=    53    24
 Precomputing XC quadrature grid using
 IXCGrd= 2 IRadAn=           0 IRanWt=          -1 IRanGd=           0 AccXCQ= 0.00D+00.
 NRdTot=     189 NPtTot=       23968 NUsed=       25343 NTot=       25375
 NSgBfM=    87    87    87    87    87 NAtAll=     3     3.
 Leave Link  302 at Tue May  8 20:42:07 2018, MaxMem=  671088640 cpu:      10.8
 (Enter /shared/apps/gaussian/G09_LINUX_LINDA/g09/l303.exe)
 DipDrv:  MaxL=1.
 Leave Link  303 at Tue May  8 20:42:07 2018, MaxMem=  671088640 cpu:       2.7
 (Enter /shared/apps/gaussian/G09_LINUX_LINDA/g09/l401.exe)
 Initial guess read from the read-write file.
 B after Tr=     0.000000    0.000000    0.000000
         Rot=    1.000000    0.000000    0.000000    0.000000 Ang=   0.00 deg.
 Guess basis will be translated and rotated to current coordinates.
 Initial guess orbital symmetries:
 Alpha Orbitals:
       Occupied  (A') (A') (A') (A') (A') (A") (A') (A') (A")
       Virtual   (A') (A') (A') (A") (A') (A') (A") (A') (A') (A')
                 (A') (A") (A') (A') (A') (A") (A') (A") (A') (A')
                 (A') (A") (A") (A') (A') (A') (A") (A') (A') (A")
                 (A') (A') (A') (A") (A') (A') (A") (A') (A") (A')
                 (A') (A") (A') (A") (A") (A') (A') (A') (A') (A")
                 (A") (A') (A") (A') (A") (A') (A") (A") (A') (A')
                 (A') (A') (A") (A') (A') (A') (A') (A')
 Beta  Orbitals:
       Occupied  (A') (A') (A') (A') (A') (A') (A") (A')
       Virtual   (A") (A') (A') (A') (A") (A') (A') (A") (A') (A')
                 (A') (A') (A") (A') (A') (A') (A") (A') (A') (A")
                 (A') (A') (A") (A") (A') (A') (A') (A") (A') (A')
                 (A") (A') (A') (A') (A") (A') (A') (A") (A') (A")
                 (A') (A') (A') (A") (A") (A') (A") (A') (A') (A')
                 (A") (A") (A') (A') (A") (A") (A') (A") (A') (A")
                 (A') (A') (A') (A") (A') (A') (A') (A') (A')
 The electronic state of the initial guess is 2-A".
 Initial guess <Sx>= 0.0000 <Sy>= 0.0000 <Sz>= 0.5000 <S**2>= 0.7550 S= 0.5025
 Leave Link  401 at Tue May  8 20:42:09 2018, MaxMem=  671088640 cpu:      15.3
 (Enter /shared/apps/gaussian/G09_LINUX_LINDA/g09/l502.exe)
 UHF open shell SCF:
 Requested convergence on RMS density matrix=1.00D-08 within 128 cycles.
 Requested convergence on MAX density matrix=1.00D-06.
 Requested convergence on             energy=1.00D-06.
 No special actions if energy rises.
 Using DIIS extrapolation, IDIIS=  1040.
 Integral symmetry usage will be decided dynamically.
        25303 words used for storage of precomputed grid.
 Keep R1 and R2 ints in memory in canonical form, NReq=16665976.
 IEnd=       68543 IEndB=       68543 NGot=   671088640 MDV=   656386954
 LenX=   656386954 LenY=   656378944
 Symmetry not used in FoFDir.
 MinBra= 0 MaxBra= 3 Meth= 1.
 IRaf=       0 NMat=   1 IRICut=       1 DoRegI=T DoRafI=F ISym2E= 0 JSym2E=0.

 Cycle   1  Pass 1  IDiag  1:
 E= -150.900030096506    
 DIIS: error= 4.52D-04 at cycle   1 NSaved=   1.
 NSaved= 1 IEnMin= 1 EnMin= -150.900030096506     IErMin= 1 ErrMin= 4.52D-04
 ErrMax= 4.52D-04 EMaxC= 1.00D-01 BMatC= 1.01D-04 BMatP= 1.01D-04
 IDIUse=3 WtCom= 9.95D-01 WtEn= 4.52D-03
 Coeff-Com:  0.100D+01
 Coeff-En:   0.100D+01
 Coeff:      0.100D+01
 Gap=     0.436 Goal=   None    Shift=    0.000
 Gap=     0.294 Goal=   None    Shift=    0.000
 RMSDP=6.74D-05 MaxDP=1.16D-03              OVMax= 1.64D-03

 Cycle   2  Pass 1  IDiag  1:
 E= -150.900055449371     Delta-E=       -0.000025352865 Rises=F Damp=F
 DIIS: error= 7.99D-05 at cycle   2 NSaved=   2.
 NSaved= 2 IEnMin= 2 EnMin= -150.900055449371     IErMin= 2 ErrMin= 7.99D-05
 ErrMax= 7.99D-05 EMaxC= 1.00D-01 BMatC= 2.84D-06 BMatP= 1.01D-04
 IDIUse=1 WtCom= 1.00D+00 WtEn= 0.00D+00
 Coeff-Com: -0.845D-01 0.108D+01
 Coeff:     -0.845D-01 0.108D+01
 Gap=     0.436 Goal=   None    Shift=    0.000
 Gap=     0.294 Goal=   None    Shift=    0.000
 RMSDP=1.85D-05 MaxDP=3.27D-04 DE=-2.54D-05 OVMax= 5.08D-04

 Cycle   3  Pass 1  IDiag  1:
 E= -150.900056114115     Delta-E=       -0.000000664744 Rises=F Damp=F
 DIIS: error= 9.38D-05 at cycle   3 NSaved=   3.
 NSaved= 3 IEnMin= 3 EnMin= -150.900056114115     IErMin= 2 ErrMin= 7.99D-05
 ErrMax= 9.38D-05 EMaxC= 1.00D-01 BMatC= 2.26D-06 BMatP= 2.84D-06
 IDIUse=1 WtCom= 1.00D+00 WtEn= 0.00D+00
 Coeff-Com: -0.619D-01 0.555D+00 0.507D+00
 Coeff:     -0.619D-01 0.555D+00 0.507D+00
 Gap=     0.436 Goal=   None    Shift=    0.000
 Gap=     0.294 Goal=   None    Shift=    0.000
 RMSDP=5.25D-06 MaxDP=1.07D-04 DE=-6.65D-07 OVMax= 3.67D-04

 Cycle   4  Pass 1  IDiag  1:
 E= -150.900056475098     Delta-E=       -0.000000360984 Rises=F Damp=F
 DIIS: error= 3.09D-05 at cycle   4 NSaved=   4.
 NSaved= 4 IEnMin= 4 EnMin= -150.900056475098     IErMin= 4 ErrMin= 3.09D-05
 ErrMax= 3.09D-05 EMaxC= 1.00D-01 BMatC= 2.25D-07 BMatP= 2.26D-06
 IDIUse=1 WtCom= 1.00D+00 WtEn= 0.00D+00
 Coeff-Com: -0.105D-01 0.219D-01 0.232D+00 0.757D+00
 Coeff:     -0.105D-01 0.219D-01 0.232D+00 0.757D+00
 Gap=     0.436 Goal=   None    Shift=    0.000
 Gap=     0.294 Goal=   None    Shift=    0.000
 RMSDP=2.06D-06 MaxDP=3.43D-05 DE=-3.61D-07 OVMax= 7.81D-05

 Cycle   5  Pass 1  IDiag  1:
 E= -150.900056517592     Delta-E=       -0.000000042494 Rises=F Damp=F
 DIIS: error= 7.74D-06 at cycle   5 NSaved=   5.
 NSaved= 5 IEnMin= 5 EnMin= -150.900056517592     IErMin= 5 ErrMin= 7.74D-06
 ErrMax= 7.74D-06 EMaxC= 1.00D-01 BMatC= 1.39D-08 BMatP= 2.25D-07
 IDIUse=1 WtCom= 1.00D+00 WtEn= 0.00D+00
 Coeff-Com:  0.341D-02-0.548D-01 0.350D-01 0.236D+00 0.781D+00
 Coeff:      0.341D-02-0.548D-01 0.350D-01 0.236D+00 0.781D+00
 Gap=     0.436 Goal=   None    Shift=    0.000
 Gap=     0.294 Goal=   None    Shift=    0.000
 RMSDP=8.31D-07 MaxDP=1.17D-05 DE=-4.25D-08 OVMax= 4.32D-05

 Cycle   6  Pass 1  IDiag  1:
 E= -150.900056522147     Delta-E=       -0.000000004555 Rises=F Damp=F
 DIIS: error= 3.09D-06 at cycle   6 NSaved=   6.
 NSaved= 6 IEnMin= 6 EnMin= -150.900056522147     IErMin= 6 ErrMin= 3.09D-06
 ErrMax= 3.09D-06 EMaxC= 1.00D-01 BMatC= 1.99D-09 BMatP= 1.39D-08
 IDIUse=1 WtCom= 1.00D+00 WtEn= 0.00D+00
 Coeff-Com:  0.133D-02-0.704D-02-0.115D-01-0.748D-01 0.124D+00 0.968D+00
 Coeff:      0.133D-02-0.704D-02-0.115D-01-0.748D-01 0.124D+00 0.968D+00
 Gap=     0.436 Goal=   None    Shift=    0.000
 Gap=     0.294 Goal=   None    Shift=    0.000
 RMSDP=3.62D-07 MaxDP=5.58D-06 DE=-4.55D-09 OVMax= 2.86D-05

 Cycle   7  Pass 1  IDiag  1:
 E= -150.900056523251     Delta-E=       -0.000000001105 Rises=F Damp=F
 DIIS: error= 1.61D-06 at cycle   7 NSaved=   7.
 NSaved= 7 IEnMin= 7 EnMin= -150.900056523251     IErMin= 7 ErrMin= 1.61D-06
 ErrMax= 1.61D-06 EMaxC= 1.00D-01 BMatC= 4.72D-10 BMatP= 1.99D-09
 IDIUse=1 WtCom= 1.00D+00 WtEn= 0.00D+00
 Coeff-Com: -0.782D-03 0.107D-01 0.150D-02-0.545D-01-0.162D+00-0.166D+00
 Coeff-Com:  0.137D+01
 Coeff:     -0.782D-03 0.107D-01 0.150D-02-0.545D-01-0.162D+00-0.166D+00
 Coeff:      0.137D+01
 Gap=     0.436 Goal=   None    Shift=    0.000
 Gap=     0.294 Goal=   None    Shift=    0.000
 RMSDP=2.50D-07 MaxDP=5.54D-06 DE=-1.10D-09 OVMax= 2.46D-05

 Cycle   8  Pass 1  IDiag  1:
 E= -150.900056523629     Delta-E=       -0.000000000378 Rises=F Damp=F
 DIIS: error= 4.88D-07 at cycle   8 NSaved=   8.
 NSaved= 8 IEnMin= 8 EnMin= -150.900056523629     IErMin= 8 ErrMin= 4.88D-07
 ErrMax= 4.88D-07 EMaxC= 1.00D-01 BMatC= 4.38D-11 BMatP= 4.72D-10
 IDIUse=1 WtCom= 1.00D+00 WtEn= 0.00D+00
 Coeff-Com: -0.395D-04-0.118D-02 0.413D-02 0.184D-01 0.273D-01-0.828D-01
 Coeff-Com: -0.266D+00 0.130D+01
 Coeff:     -0.395D-04-0.118D-02 0.413D-02 0.184D-01 0.273D-01-0.828D-01
 Coeff:     -0.266D+00 0.130D+01
 Gap=     0.436 Goal=   None    Shift=    0.000
 Gap=     0.294 Goal=   None    Shift=    0.000
 RMSDP=7.73D-08 MaxDP=1.84D-06 DE=-3.78D-10 OVMax= 7.88D-06

 Cycle   9  Pass 1  IDiag  1:
 E= -150.900056523669     Delta-E=       -0.000000000040 Rises=F Damp=F
 DIIS: error= 1.43D-07 at cycle   9 NSaved=   9.
 NSaved= 9 IEnMin= 9 EnMin= -150.900056523669     IErMin= 9 ErrMin= 1.43D-07
 ErrMax= 1.43D-07 EMaxC= 1.00D-01 BMatC= 4.24D-12 BMatP= 4.38D-11
 IDIUse=1 WtCom= 1.00D+00 WtEn= 0.00D+00
 Coeff-Com:  0.847D-04-0.110D-02-0.295D-03 0.362D-02 0.159D-01 0.209D-01
 Coeff-Com: -0.143D+00-0.203D+00 0.131D+01
 Coeff:      0.847D-04-0.110D-02-0.295D-03 0.362D-02 0.159D-01 0.209D-01
 Coeff:     -0.143D+00-0.203D+00 0.131D+01
 Gap=     0.436 Goal=   None    Shift=    0.000
 Gap=     0.294 Goal=   None    Shift=    0.000
 RMSDP=3.74D-08 MaxDP=8.19D-07 DE=-4.01D-11 OVMax= 3.57D-06

 Cycle  10  Pass 1  IDiag  1:
 E= -150.900056523674     Delta-E=       -0.000000000005 Rises=F Damp=F
 DIIS: error= 2.44D-08 at cycle  10 NSaved=  10.
 NSaved=10 IEnMin=10 EnMin= -150.900056523674     IErMin=10 ErrMin= 2.44D-08
 ErrMax= 2.44D-08 EMaxC= 1.00D-01 BMatC= 1.12D-13 BMatP= 4.24D-12
 IDIUse=1 WtCom= 1.00D+00 WtEn= 0.00D+00
 Coeff-Com: -0.130D-04 0.246D-03-0.145D-03-0.197D-02-0.387D-02 0.388D-02
 Coeff-Com:  0.358D-01-0.721D-01-0.101D+00 0.114D+01
 Coeff:     -0.130D-04 0.246D-03-0.145D-03-0.197D-02-0.387D-02 0.388D-02
 Coeff:      0.358D-01-0.721D-01-0.101D+00 0.114D+01
 Gap=     0.436 Goal=   None    Shift=    0.000
 Gap=     0.294 Goal=   None    Shift=    0.000
 RMSDP=6.07D-09 MaxDP=6.97D-08 DE=-4.89D-12 OVMax= 2.51D-07

 SCF Done:  E(UM062X) =  -150.900056524     A.U. after   10 cycles
             Convg  =    0.6066D-08             -V/T =  2.0024
 <Sx>= 0.0000 <Sy>= 0.0000 <Sz>= 0.5000 <S**2>= 0.7550 S= 0.5025
 <L.S>= 0.000000000000E+00
 KE= 1.505388468322D+02 PE=-4.223708254706D+02 EE= 8.833508199384D+01
 Annihilation of the first spin contaminant:
 S**2 before annihilation     0.7550,   after     0.7500
 Leave Link  502 at Tue May  8 20:42:56 2018, MaxMem=  671088640 cpu:     473.0
 (Enter /shared/apps/gaussian/G09_LINUX_LINDA/g09/l701.exe)
 Compute integral first derivatives.
 ... and contract with generalized density number  0.
 Leave Link  701 at Tue May  8 20:42:58 2018, MaxMem=  671088640 cpu:      11.3
 (Enter /shared/apps/gaussian/G09_LINUX_LINDA/g09/l702.exe)
 L702 exits ... SP integral derivatives will be done elsewhere.
 Leave Link  702 at Tue May  8 20:42:58 2018, MaxMem=  671088640 cpu:       0.3
 (Enter /shared/apps/gaussian/G09_LINUX_LINDA/g09/l703.exe)
 Compute integral first derivatives, UseDBF=F ICtDFT=           0.
 Integral derivatives from FoFDir, PRISM(SPDF).
 Calling FoFJK, ICntrl=      2127 FMM=F ISym2X=1 I1Cent= 0 IOpClX= 1 NMat=1 NMatS=1 NMatT=0.
 FoFCou: FMM=F IPFlag=           0 FMFlag=      100000 FMFlg1=         800
         NFxFlg=           0 DoJE=F BraDBF=F KetDBF=F FulRan=T
         Omega=  0.000000  0.000000  1.000000  0.000000  0.000000 ICntrl=    2127 IOpCl=  1
         NMat0=    1 NMatS0=    1 NMatT0=    0 NMatD0=    1 NMtDS0=    0 NMtDT0=    0
         I1Cent=           0 NGrid=           0.
 Petite list used in FoFCou.
 Leave Link  703 at Tue May  8 20:43:01 2018, MaxMem=  671088640 cpu:      28.8
 (Enter /shared/apps/gaussian/G09_LINUX_LINDA/g09/l716.exe)
 Dipole        =-6.88681835D-01-5.77424038D-01 4.33031606D-33
 ***** Axes restored to original set *****
 -------------------------------------------------------------------
 Center     Atomic                   Forces (Hartrees/Bohr)
 Number     Number              X              Y              Z
 -------------------------------------------------------------------
      1        8          -0.001127955    0.000042646    0.000000000
      2        8           0.001325013    0.001066261    0.000000000
      3        1          -0.000197058   -0.001108907    0.000000000
 -------------------------------------------------------------------
 Cartesian Forces:  Max     0.001325013 RMS     0.000777116
 Leave Link  716 at Tue May  8 20:43:01 2018, MaxMem=  671088640 cpu:       0.3
 (Enter /shared/apps/gaussian/G09_LINUX_LINDA/g09/l103.exe)

 GradGradGradGradGradGradGradGradGradGradGradGradGradGradGradGradGradGrad
 Berny optimization.
 Using GDIIS optimizer.
 Internal  Forces:  Max     0.001149196 RMS     0.001044042
 Search for a local minimum.
 Step number   3 out of a maximum of   20
 All quantities printed in internal units (Hartrees-Bohrs-Radians)
 Swaping is turned off.
 Update second derivatives using D2CorX and points    1    2    3
 DE= -1.48D-05 DEPred=-2.32D-05 R= 6.36D-01
 SS=  1.41D+00  RLast= 1.63D-02 DXNew= 5.0454D-01 4.8950D-02
 Trust test= 6.36D-01 RLast= 1.63D-02 DXMaxT set to 3.00D-01
 The second derivative matrix:
                          R1        R2        A1
           R1           0.51371
           R2          -0.05846   0.51395
           A1           0.06493  -0.02149   0.23881
 ITU=  1  1  0
     Eigenvalues ---    0.22400   0.45912   0.58336
 DIIS coeff's:      0.71161      0.30227     -0.01388
 Cosine:  1.000 >  0.840
 Length:  0.982
 GDIIS step was calculated using  3 of the last  3 vectors.
 Iteration  1 RMS(Cart)=  0.00286217 RMS(Int)=  0.00000402
 Iteration  2 RMS(Cart)=  0.00000382 RMS(Int)=  0.00000000
 Iteration  3 RMS(Cart)=  0.00000000 RMS(Int)=  0.00000000
 ClnCor:  largest displacement from symmetrization is 2.00D-16 for atom     2.
 Variable       Old X    -DE/DX   Delta X   Delta X   Delta X     New X
                                  (DIIS)     (GDIIS)  (Total)
    R1        2.46847  -0.00103   0.00065  -0.00185  -0.00120   2.46727
    R2        1.83483   0.00095   0.00034   0.00117   0.00150   1.83633
    A1        1.85461  -0.00115  -0.00460   0.00031  -0.00429   1.85033
         Item               Value     Threshold  Converged?
 Maximum Force            0.001149     0.000002     NO 
 RMS     Force            0.001044     0.000001     NO 
 Maximum Displacement     0.002846     0.000006     NO 
 RMS     Displacement     0.002864     0.000004     NO 
 Predicted change in Energy=-3.857939D-06
 GradGradGradGradGradGradGradGradGradGradGradGradGradGradGradGradGradGrad

 Leave Link  103 at Tue May  8 20:43:02 2018, MaxMem=  671088640 cpu:      10.2
 (Enter /shared/apps/gaussian/G09_LINUX_LINDA/g09/l202.exe)
                          Input orientation:                          
 ---------------------------------------------------------------------
 Center     Atomic      Atomic             Coordinates (Angstroms)
 Number     Number       Type             X           Y           Z
 ---------------------------------------------------------------------
      1          8           0        0.995946   -0.161900    0.000000
      2          8           0       -0.165238    0.435011    0.000000
      3          1           0       -0.830707   -0.273111    0.000000
 ---------------------------------------------------------------------
                    Distance matrix (angstroms):
                    1          2          3
     1  O    0.000000
     2  O    1.305623   0.000000
     3  H    1.830035   0.971743   0.000000
 Stoichiometry    HO2(2)
 Framework group  CS[SG(HO2)]
 Deg. of freedom     3
 Full point group                 CS      NOp   2
 Largest Abelian subgroup         CS      NOp   2
 Largest concise Abelian subgroup C1      NOp   1
                         Standard orientation:                         
 ---------------------------------------------------------------------
 Center     Atomic      Atomic             Coordinates (Angstroms)
 Number     Number       Type             X           Y           Z
 ---------------------------------------------------------------------
      1          8           0        0.054943    0.706983    0.000000
      2          8           0        0.054943   -0.598640    0.000000
      3          1           0       -0.879082   -0.866747    0.000000
 ---------------------------------------------------------------------
 Rotational constants (GHZ):    631.1925622     34.8220352     33.0013932
 Leave Link  202 at Tue May  8 20:43:02 2018, MaxMem=  671088640 cpu:       1.1
 (Enter /shared/apps/gaussian/G09_LINUX_LINDA/g09/l301.exe)
 Standard basis: 6-311+G(2df,2p) (5D, 7F)
 Ernie: Thresh=  0.10000D-02 Tol=  0.10000D-05 Strict=F.
 There are    53 symmetry adapted basis functions of A'  symmetry.
 There are    24 symmetry adapted basis functions of A"  symmetry.
 Integral buffers will be    131072 words long.
 Raffenetti 2 integral format.
 Two-electron integral symmetry is turned on.
    77 basis functions,   115 primitive gaussians,    87 cartesian basis functions
     9 alpha electrons        8 beta electrons
       nuclear repulsion energy        32.6094265548 Hartrees.
 IExCor= 4336 DFT=T Ex+Corr=M062X ExCW=0 ScaHFX=  0.540000
 ScaDFX=  1.000000  1.000000  1.000000  1.000000 ScalE2=  1.000000  1.000000
 IRadAn=      0 IRanWt=     -1 IRanGd=            0 ICorTp=0
 NAtoms=    3 NActive=    3 NUniq=    3 SFac= 1.00D+00 NAtFMM=   50 NAOKFM=F Big=F
 Leave Link  301 at Tue May  8 20:43:03 2018, MaxMem=  671088640 cpu:       0.9
 (Enter /shared/apps/gaussian/G09_LINUX_LINDA/g09/l302.exe)
 NPDir=0 NMtPBC=     1 NCelOv=     1 NCel=       1 NClECP=     1 NCelD=      1
         NCelK=      1 NCelE2=     1 NClLst=     1 CellRange=     0.0.
 One-electron integrals computed using PRISM.
 NBasis=    77 RedAO= T  NBF=    53    24
 NBsUse=    77 1.00D-06 NBFU=    53    24
 Precomputing XC quadrature grid using
 IXCGrd= 2 IRadAn=           0 IRanWt=          -1 IRanGd=           0 AccXCQ= 0.00D+00.
 NRdTot=     189 NPtTot=       23968 NUsed=       25343 NTot=       25375
 NSgBfM=    87    87    87    87    87 NAtAll=     3     3.
 Leave Link  302 at Tue May  8 20:43:03 2018, MaxMem=  671088640 cpu:       8.1
 (Enter /shared/apps/gaussian/G09_LINUX_LINDA/g09/l303.exe)
 DipDrv:  MaxL=1.
 Leave Link  303 at Tue May  8 20:43:04 2018, MaxMem=  671088640 cpu:       2.9
 (Enter /shared/apps/gaussian/G09_LINUX_LINDA/g09/l401.exe)
 Initial guess read from the read-write file.
 B after Tr=     0.000000    0.000000    0.000000
         Rot=    1.000000    0.000000    0.000000    0.000000 Ang=   0.00 deg.
 Guess basis will be translated and rotated to current coordinates.
 Initial guess orbital symmetries:
 Alpha Orbitals:
       Occupied  (A') (A') (A') (A') (A') (A") (A') (A') (A")
       Virtual   (A') (A') (A') (A") (A') (A') (A") (A') (A') (A')
                 (A') (A") (A') (A') (A') (A") (A') (A") (A') (A')
                 (A') (A") (A") (A') (A') (A') (A") (A') (A') (A")
                 (A') (A') (A') (A") (A') (A') (A") (A') (A") (A')
                 (A') (A") (A') (A") (A") (A') (A') (A') (A') (A")
                 (A") (A') (A") (A') (A") (A') (A") (A") (A') (A')
                 (A') (A') (A") (A') (A') (A') (A') (A')
 Beta  Orbitals:
       Occupied  (A') (A') (A') (A') (A') (A') (A") (A')
       Virtual   (A") (A') (A') (A') (A") (A') (A') (A") (A') (A')
[...]
 Mulliken atomic charges:
              1
     1  O   -0.170456
     2  O   -0.101955
     3  H    0.272412
 Sum of Mulliken atomic charges =   0.00000
 Mulliken charges with hydrogens summed into heavy atoms:
              1
     1  O   -0.170456
     2  O    0.170456
 Sum of Mulliken charges with hydrogens summed into heavy atoms =   0.00000
          Atomic-Atomic Spin Densities.
              1          2          3
     1  O    0.901434  -0.153441   0.001610
     2  O   -0.153441   0.407697   0.006126
     3  H    0.001610   0.006126  -0.017722
 Mulliken atomic spin densities:
              1
     1  O    0.749603
     2  O    0.260382
     3  H   -0.009986
 Sum of Mulliken atomic spin densities =   1.00000
 APT atomic charges:
              1
     1  O    0.008858
     2  O   -0.295420
     3  H    0.286562
 Sum of APT charges=   0.00000
 APT Atomic charges with hydrogens summed into heavy atoms:
              1
     1  O    0.008858
     2  O   -0.008858
     3  H    0.000000
 Sum of APT charges=   0.00000
 Electronic spatial extent (au):  <R**2>=             53.9798
 Charge=              0.0000 electrons
 Dipole moment (field-independent basis, Debye):
    X=             -1.7525    Y=             -1.4647    Z=              0.0000  Tot=              2.2839
 Quadrupole moment (field-independent basis, Debye-Ang):
   XX=             -9.9641   YY=            -11.0420   ZZ=            -11.0727
   XY=              1.7096   XZ=              0.0000   YZ=              0.0000
 Traceless Quadrupole moment (field-independent basis, Debye-Ang):
   XX=              0.7288   YY=             -0.3491   ZZ=             -0.3798
   XY=              1.7096   XZ=              0.0000   YZ=              0.0000
 Octapole moment (field-independent basis, Debye-Ang**2):
  XXX=             -2.2224  YYY=             -1.8284  ZZZ=              0.0000  XYY=             -1.7668
  XXY=             -2.1012  XXZ=              0.0000  XZZ=             -0.2005  YZZ=              0.0490
  YYZ=              0.0000  XYZ=              0.0000
 Hexadecapole moment (field-independent basis, Debye-Ang**3):
 XXXX=             -9.4487 YYYY=            -36.3189 ZZZZ=             -8.3863 XXXY=              0.3527
 XXXZ=              0.0000 YYYX=              0.5955 YYYZ=              0.0000 ZZZX=              0.0000
 ZZZY=              0.0000 XXYY=             -7.6277 XXZZ=             -3.2453 YYZZ=             -7.9100
 XXYZ=              0.0000 YYXZ=              0.0000 ZZXY=             -0.2753
 N-N= 3.261047838443D+01 E-N=-6.268274238880D+02  KE= 2.241326218474D+02
 Symmetry A'   KE= 2.147066683307D+02
 Symmetry A"   KE= 9.425953516668D+00
  Exact polarizability:   9.575   1.537  16.744   0.000   0.000   7.721
 Approx polarizability:  10.166   1.428  18.801   0.000   0.000   8.232
                          Isotropic Fermi Contact Couplings
        Atom                 a.u.       MegaHertz       Gauss      10(-4) cm-1
     1  O(17)              0.10997     -66.66552     -23.78791     -22.23722
     2  O(17)              0.05914     -35.85178     -12.79280     -11.95887
     3  H(1)              -0.00649     -29.01922     -10.35478      -9.67977
 --------------------------------------------------------
       Center         ----  Spin Dipole Couplings  ----
                      3XX-RR        3YY-RR        3ZZ-RR
 --------------------------------------------------------
     1   Atom       -1.598004     -1.642029      3.240033
     2   Atom       -0.718565     -0.805172      1.523738
     3   Atom        0.049383     -0.022666     -0.026717
 --------------------------------------------------------
                        XY            XZ            YZ
 --------------------------------------------------------
     1   Atom       -0.007648      0.000000      0.000000
     2   Atom        0.028431      0.000000      0.000000
     3   Atom        0.042119      0.000000      0.000000
 --------------------------------------------------------


 ---------------------------------------------------------------------------------
              Anisotropic Spin Dipole Couplings in Principal Axis System
 ---------------------------------------------------------------------------------

       Atom             a.u.   MegaHertz   Gauss  10(-4) cm-1        Axes

              Baa    -1.6433   118.909    42.430    39.664  0.1664  0.9861  0.0000
     1 O(17)  Bbb    -1.5967   115.537    41.226    38.539  0.9861 -0.1664  0.0000
              Bcc     3.2400  -234.446   -83.656   -78.203  0.0000  0.0000  1.0000
 
              Baa    -0.8137    58.877    21.009    19.639 -0.2864  0.9581  0.0000
     2 O(17)  Bbb    -0.7101    51.380    18.334    17.138  0.9581  0.2864  0.0000
              Bcc     1.5237  -110.257   -39.342   -36.778  0.0000  0.0000  1.0000
 
              Baa    -0.0421   -22.444    -8.009    -7.486 -0.4183  0.9083  0.0000
     3 H(1)   Bbb    -0.0267   -14.255    -5.087    -4.755  0.0000  0.0000  1.0000
              Bcc     0.0688    36.699    13.095    12.241  0.9083  0.4183  0.0000
 

 ---------------------------------------------------------------------------------

 No NMR shielding tensors so no spin-rotation constants.
 Leave Link  601 at Tue May  8 20:46:17 2018, MaxMem=  671088640 cpu:      26.9
 (Enter /shared/apps/gaussian/G09_LINUX_LINDA/g09/l701.exe)
 Compute integral second derivatives.
 ... and contract with generalized density number  0.
 Leave Link  701 at Tue May  8 20:46:19 2018, MaxMem=  671088640 cpu:      15.5
 (Enter /shared/apps/gaussian/G09_LINUX_LINDA/g09/l702.exe)
 L702 exits ... SP integral derivatives will be done elsewhere.
 Leave Link  702 at Tue May  8 20:46:19 2018, MaxMem=  671088640 cpu:       0.2
 (Enter /shared/apps/gaussian/G09_LINUX_LINDA/g09/l703.exe)
 Compute integral second derivatives, UseDBF=F ICtDFT=           0.
 Integral derivatives from FoFDir, PRISM(SPDF).
 Calling FoFJK, ICntrl=    100127 FMM=F ISym2X=1 I1Cent= 0 IOpClX= 1 NMat=1 NMatS=1 NMatT=0.
 FoFCou: FMM=F IPFlag=           0 FMFlag=      100000 FMFlg1=         800
         NFxFlg=           0 DoJE=F BraDBF=F KetDBF=F FulRan=T
         Omega=  0.000000  0.000000  1.000000  0.000000  0.000000 ICntrl=  100127 IOpCl=  1
         NMat0=    1 NMatS0=    1 NMatT0=    0 NMatD0=    1 NMtDS0=    0 NMtDT0=    0
         I1Cent=           0 NGrid=           0.
 Petite list used in FoFCou.
 Leave Link  703 at Tue May  8 20:46:26 2018, MaxMem=  671088640 cpu:      75.7
 (Enter /shared/apps/gaussian/G09_LINUX_LINDA/g09/l716.exe)
 Dipole        =-6.89476849D-01-5.76237711D-01 1.74904760D-32
 Polarizability= 9.57453389D+00 1.53658160D+00 1.67444774D+01
                 1.56129944D-09-4.17876836D-09 7.72073479D+00
 Full mass-weighted force constant matrix:
 Low frequencies ---   -0.0012   -0.0011   -0.0008   55.8093   57.7318  135.4295
 Low frequencies --- 1268.7342 1473.7123 3711.9504
 Harmonic frequencies (cm**-1), IR intensities (KM/Mole), Raman scattering
 activities (A**4/AMU), depolarization ratios for plane and unpolarized
 incident light, reduced masses (AMU), force constants (mDyne/A),
 and normal coordinates:
                     1                      2                      3
                    A'                     A'                     A'
 Frequencies --  1268.7342              1473.7114              3711.9501
 Red. masses --    11.4916                 1.1522                 1.0680
 Frc consts  --    10.8986                 1.4744                 8.6702
 IR Inten    --    43.3414                39.9022                46.5469
  Atom  AN      X      Y      Z        X      Y      Z        X      Y      Z
     1   8    -0.03   0.57   0.00     0.05   0.06   0.00     0.00   0.00   0.00
     2   8     0.04  -0.61   0.00    -0.06   0.00   0.00     0.06   0.01   0.00
     3   1    -0.22   0.50   0.00     0.20  -0.97   0.00    -0.96  -0.26   0.00

 -------------------
 - Thermochemistry -
 -------------------
 Temperature   298.150 Kelvin.  Pressure   1.00000 Atm.
 Atom     1 has atomic number  8 and mass  15.99491
 Atom     2 has atomic number  8 and mass  15.99491
 Atom     3 has atomic number  1 and mass   1.00783
 Molecular mass:    32.99765 amu.
 Principal axes and moments of inertia in atomic units:
                           1         2         3
     Eigenvalues --     2.86023  51.82024  54.68047
           X            0.06143   0.99811   0.00000
           Y            0.99811  -0.06143   0.00000
           Z            0.00000   0.00000   1.00000
 This molecule is an asymmetric top.
 Rotational symmetry number  1.
 Rotational temperatures (Kelvin)     30.28207     1.67143     1.58400
 Rotational constants (GHZ):         630.97675    34.82696    33.00522
 Zero-point vibrational energy      38605.9 (Joules/Mol)
                                    9.22702 (Kcal/Mol)
 Vibrational temperatures:   1825.42  2120.34  5340.66
          (Kelvin)
 
 Zero-point correction=                           0.014704 (Hartree/Particle)
 Thermal correction to Energy=                    0.017555
 Thermal correction to Enthalpy=                  0.018499
 Thermal correction to Gibbs Free Energy=        -0.007434
 Sum of electronic and zero-point Energies=           -150.885356
 Sum of electronic and thermal Energies=              -150.882506
 Sum of electronic and thermal Enthalpies=            -150.881561
 Sum of electronic and thermal Free Energies=         -150.907494
 
                     E (Thermal)             CV                S
                      KCal/Mol        Cal/Mol-Kelvin    Cal/Mol-Kelvin
 Total                   11.016              6.208             54.580
 Electronic               0.000              0.000              1.377
 Translational            0.889              2.981             36.413
 Rotational               0.889              2.981             16.746
 Vibrational              9.238              0.246              0.044
                       Q            Log10(Q)             Ln(Q)
 Total Bot       0.262594D+04          3.419285          7.873194
 Total V=0       0.152311D+11         10.182731         23.446604
 Vib (Bot)       0.172927D-06         -6.762138        -15.570398
 Vib (V=0)       0.100302D+01          0.001308          0.003011
 Electronic      0.200000D+01          0.301030          0.693147
 Translational   0.745040D+07          6.872180         15.823779
 Rotational      0.101909D+04          3.008213          6.926666
 
                                                    Gaussian input prepared by AS
 E
                                                             IR Spectrum
 
     3                                                                            1      1                                           
     7                                                                            4      2                                           
     1                                                                            7      6                                           
     2                                                                            4      9                                           
 
     X                                                                            X      X                                           
     X                                                                            X      X                                           
     X                                                                            X      X                                           
     X                                                                            X      X                                           
     X                                                                            X      X                                           
     X                                                                            X      X                                           
     X                                                                            X      X                                           
     X                                                                            X      X                                           
     X                                                                            X      X                                           
     X                                                                            X      X                                           
     X                                                                            X      X                                           
     X                                                                            X      X                                           
     X                                                                            X      X                                           
     X                                                                            X      X                                           
     X                                                                            X      X                                           
     X                                                                            X      X                                           
     X                                                                            X      X                                           
     X                                                                                   X                                           
     X                                                                                   X                                           
     X                                                                                                                               
 
 ***** Axes restored to original set *****
 -------------------------------------------------------------------
 Center     Atomic                   Forces (Hartrees/Bohr)
 Number     Number              X              Y              Z
 -------------------------------------------------------------------
      1        8          -0.000001825   -0.000013079    0.000000000
      2        8           0.000005483    0.000002306    0.000000000
      3        1          -0.000003658    0.000010773    0.000000000
 -------------------------------------------------------------------
 Cartesian Forces:  Max     0.000013079 RMS     0.000006139
 Force constants in Cartesian coordinates: 
                1             2             3             4             5 
      1  0.447008D+00
      2 -0.175577D+00  0.114401D+00
      3  0.000000D+00  0.000000D+00  0.100512D-02
      4 -0.387203D+00  0.187269D+00  0.000000D+00  0.593950D+00
      5  0.144669D+00 -0.142181D+00  0.000000D+00  0.535252D-01  0.470810D+00
      6  0.000000D+00  0.000000D+00 -0.108068D-02  0.000000D+00  0.000000D+00
      7 -0.598053D-01 -0.116920D-01  0.000000D+00 -0.206747D+00 -0.198194D+00
      8  0.309075D-01  0.277807D-01  0.000000D+00 -0.240794D+00 -0.328628D+00
      9  0.000000D+00  0.000000D+00  0.755594D-04  0.000000D+00  0.000000D+00
                6             7             8             9 
      6  0.179794D-02
      7  0.000000D+00  0.266552D+00
      8  0.000000D+00  0.209886D+00  0.300847D+00
      9 -0.717259D-03  0.000000D+00  0.000000D+00  0.641699D-03
 Force constants in internal coordinates: 
                1             2             3 
      1  0.520142D+00
      2  0.221787D-01  0.493978D+00
      3  0.823148D-01 -0.713695D-02  0.246526D+00
 Leave Link  716 at Tue May  8 20:46:27 2018, MaxMem=  671088640 cpu:       3.8
 (Enter /shared/apps/gaussian/G09_LINUX_LINDA/g09/l103.exe)

 GradGradGradGradGradGradGradGradGradGradGradGradGradGradGradGradGradGrad
 Berny optimization.
 Red2BG is reusing G-inverse.
 Internal  Forces:  Max     0.000000302 RMS     0.000000189
 Search for a local minimum.
 Step number   1 out of a maximum of    2
 All quantities printed in internal units (Hartrees-Bohrs-Radians)
 Swaping is turned off.
 Second derivative matrix not updated -- analytic derivatives used.
 The second derivative matrix:
                          R1        R2        A1
           R1           0.52014
           R2           0.02218   0.49398
           A1           0.08231  -0.00714   0.24653
 ITU=  0
     Eigenvalues ---    0.22306   0.48774   0.54984
 Angle between quadratic step and forces=  90.00 degrees.
 Linear search not attempted -- option 19 set.
 Iteration  1 RMS(Cart)=  0.00000033 RMS(Int)=  0.00000000
 ClnCor:  largest displacement from symmetrization is 1.67D-16 for atom     1.
 Variable       Old X    -DE/DX   Delta X   Delta X   Delta X     New X
                                 (Linear)    (Quad)   (Total)
    R1        2.46706   0.00000   0.00000   0.00000   0.00000   2.46706
    R2        1.83673   0.00000   0.00000   0.00000   0.00000   1.83673
    A1        1.85045   0.00000   0.00000   0.00000   0.00000   1.85045
         Item               Value     Threshold  Converged?
 Maximum Force            0.000000     0.000002     YES
 RMS     Force            0.000000     0.000001     YES
 Maximum Displacement     0.000000     0.000006     YES
 RMS     Displacement     0.000000     0.000004     YES
 Predicted change in Energy=-9.768423D-14
 Optimization completed.
    -- Stationary point found.
                           ----------------------------
                           !   Optimized Parameters   !
                           ! (Angstroms and Degrees)  !
 --------------------------                            --------------------------
 ! Name  Definition              Value          Derivative Info.                !
 --------------------------------------------------------------------------------
 ! R1    R(1,2)                  1.3055         -DE/DX =    0.0                 !
 ! R2    R(2,3)                  0.972          -DE/DX =    0.0                 !
 ! A1    A(1,2,3)              106.0231         -DE/DX =    0.0                 !
 --------------------------------------------------------------------------------
 GradGradGradGradGradGradGradGradGradGradGradGradGradGradGradGradGradGrad

 Leave Link  103 at Tue May  8 20:46:27 2018, MaxMem=  671088640 cpu:       4.0
 (Enter /shared/apps/gaussian/G09_LINUX_LINDA/g09/l9999.exe)

 Test job not archived.
 1\1\GINC-COMPUTE-3-045\Freq\UM062X\6-311+G(2df,2p)\H1O2(2)\ROOT\08-May
 -2018\0\\#P Geom=AllCheck Guess=TCheck SCRF=Check Test GenChk UM062X/6
 -311+G(2df,2p) Freq\\Gaussian input prepared by ASE\\0,2\O,0.995956552
 1,-0.161856943,0.\O,-0.1651200993,0.4350203722,0.\H,-0.8308364528,-0.2
 731634292,0.\\Version=EM64L-G09RevB.01\State=2-A"\HF=-150.9000605\S2=0
 .754987\S2-1=0.\S2A=0.750015\RMSD=3.021e-09\RMSF=6.139e-06\ZeroPoint=0
 .0147042\Thermal=0.0175549\Dipole=-0.827713,-0.3497419,0.\DipoleDeriv=
 0.2764301,-0.2717794,0.,-0.1422359,-0.0963925,0.,0.,0.,-0.1534632,-0.5
 327816,0.2978723,0.,0.1476109,-0.1166565,0.,0.,0.,-0.2368228,0.2563515
 ,-0.0260928,0.,-0.0053751,0.213049,0.,0.,0.,0.390286\Polar=16.4953415,
 -2.0212137,9.8236698,0.,0.,7.7207348\PG=CS [SG(H1O2)]\NImag=0\\0.44700
 846,-0.17557656,0.11440076,0.,0.,0.00100512,-0.38720318,0.18726853,0.,
 0.59394969,0.14466905,-0.14218148,0.,0.05352523,0.47080965,0.,0.,-0.00
 108068,0.,0.,0.00179794,-0.05980528,-0.01169197,0.,-0.20674650,-0.1981
 9429,0.,0.26655178,0.03090751,0.02778072,0.,-0.24079376,-0.32862817,0.
 ,0.20988625,0.30084745,0.,0.,0.00007556,0.,0.,-0.00071726,0.,0.,0.0006
 4170\\0.00000183,0.00001308,0.,-0.00000548,-0.00000231,0.,0.00000366,-
 0.00001077,0.\\\@


 I WANT TO KNOW HOW GOD CREATED THE WORLD.  I AM NOT INTERESTED IN
 THIS OR THAT PHENOMENON, IN THE SPECTRUM OF THIS OR THAT ELEMENT.
 I WANT TO KNOW HIS THOUGHTS, THE REST ARE DETAILS.
     -- ALBERT EINSTEIN
 Job cpu time:  0 days  0 hours  9 minutes 26.6 seconds.
 File lengths (MBytes):  RWF=     51 Int=      0 D2E=      0 Chk=      2 Scr=      1
 Normal termination of Gaussian 09 at Tue May  8 20:46:28 2018.
