 Entering Gaussian System, Link 0=g09
 Initial command:
 /shared/apps/gaussian/G09_LINUX_LINDA/g09/l1.exe /home/harms.n/Code/AutoTST/Gau-12994.inp -scrdir=/home/harms.n/Code/AutoTST/
 Entering Link 1 = /shared/apps/gaussian/G09_LINUX_LINDA/g09/l1.exe PID=     12995.
  
 Copyright (c) 1988,1990,1992,1993,1995,1998,2003,2009,2010,
            Gaussian, Inc.  All Rights Reserved.
  
 This is part of the Gaussian(R) 09 program.  It is based on
 the Gaussian(R) 03 system (copyright 2003, Gaussian, Inc.),
 the Gaussian(R) 98 system (copyright 1998, Gaussian, Inc.),
 the Gaussian(R) 94 system (copyright 1995, Gaussian, Inc.),
 the Gaussian 92(TM) system (copyright 1992, Gaussian, Inc.),
 the Gaussian 90(TM) system (copyright 1990, Gaussian, Inc.),
 the Gaussian 88(TM) system (copyright 1988, Gaussian, Inc.),
 the Gaussian 86(TM) system (copyright 1986, Carnegie Mellon
 University), and the Gaussian 82(TM) system (copyright 1983,
 Carnegie Mellon University). Gaussian is a federally registered
 trademark of Gaussian, Inc.
  
 This software contains proprietary and confidential information,
 including trade secrets, belonging to Gaussian, Inc.
  
 This software is provided under written license and may be
 used, copied, transmitted, or stored only in accord with that
 written license.
  
 The following legend is applicable only to US Government
 contracts under FAR:
  
                    RESTRICTED RIGHTS LEGEND
  
 Use, reproduction and disclosure by the US Government is
 subject to restrictions as set forth in subparagraphs (a)
 and (c) of the Commercial Computer Software - Restricted
 Rights clause in FAR 52.227-19.
  
 Gaussian, Inc.
 340 Quinnipiac St., Bldg. 40, Wallingford CT 06492
  
  
 ---------------------------------------------------------------
 Warning -- This program may not be used in any manner that
 competes with the business of Gaussian, Inc. or will provide
 assistance to any competitor of Gaussian, Inc.  The licensee
 of this program is prohibited from giving any competitor of
 Gaussian, Inc. access to this program.  By using this program,
 the user acknowledges that Gaussian, Inc. is engaged in the
 business of creating and licensing software in the field of
 computational chemistry and represents and warrants to the
 licensee that it is not a competitor of Gaussian, Inc. and that
 it will not use this program in any manner prohibited above.
 ---------------------------------------------------------------
  

 Cite this work as:
 Gaussian 09, Revision B.01,
 M. J. Frisch, G. W. Trucks, H. B. Schlegel, G. E. Scuseria, 
 M. A. Robb, J. R. Cheeseman, G. Scalmani, V. Barone, B. Mennucci, 
 G. A. Petersson, H. Nakatsuji, M. Caricato, X. Li, H. P. Hratchian, 
 A. F. Izmaylov, J. Bloino, G. Zheng, J. L. Sonnenberg, M. Hada, 
 M. Ehara, K. Toyota, R. Fukuda, J. Hasegawa, M. Ishida, T. Nakajima, 
 Y. Honda, O. Kitao, H. Nakai, T. Vreven, J. A. Montgomery, Jr., 
 J. E. Peralta, F. Ogliaro, M. Bearpark, J. J. Heyd, E. Brothers, 
 K. N. Kudin, V. N. Staroverov, T. Keith, R. Kobayashi, J. Normand, 
 K. Raghavachari, A. Rendell, J. C. Burant, S. S. Iyengar, J. Tomasi, 
 M. Cossi, N. Rega, J. M. Millam, M. Klene, J. E. Knox, J. B. Cross, 
 V. Bakken, C. Adamo, J. Jaramillo, R. Gomperts, R. E. Stratmann, 
 O. Yazyev, A. J. Austin, R. Cammi, C. Pomelli, J. W. Ochterski, 
 R. L. Martin, K. Morokuma, V. G. Zakrzewski, G. A. Voth, 
 P. Salvador, J. J. Dannenberg, S. Dapprich, A. D. Daniels, 
 O. Farkas, J. B. Foresman, J. V. Ortiz, J. Cioslowski, 
 and D. J. Fox, Gaussian, Inc., Wallingford CT, 2010.
 
 ******************************************
 Gaussian 09:  EM64L-G09RevB.01 12-Aug-2010
                 9-May-2018 
 ******************************************
 %nprocshared=20
 Will use up to   20 processors via shared memory.
 %mem=5GB
 ---------------------------------------------------------
 #p m062x/6-311+g(2df,2p) opt=(ts,calcfc,noeigentest) freq
 ---------------------------------------------------------
 1/5=1,10=4,11=1,14=-1,18=20,26=3,38=1/1,3;
 2/9=110,12=2,17=6,18=5,40=1/2;
 3/5=4,6=6,7=214,11=2,16=1,25=1,30=1,71=2,74=-55/1,2,3;
 4//1;
 5/5=2,38=5/2;
 8/6=4,10=90,11=11/1;
 11/6=1,8=1,9=11,15=111,16=1/1,2,10;
 10/6=1,7=6,13=1/2;
 6/7=2,8=2,9=2,10=2,28=1/1;
 7/10=1,18=20,25=1/1,2,3,16;
 1/5=1,10=4,11=1,14=-1,18=20/3(2);
 2/9=110/2;
 99//99;
 2/9=110/2;
 3/5=4,6=6,7=214,11=2,16=1,25=1,30=1,71=1,74=-55/1,2,3;
 4/5=5,16=3/1;
 5/5=2,38=5/2;
 7//1,2,3,16;
 1/5=1,11=1,14=-1,18=20/3(-5);
 2/9=110/2;
 6/7=2,8=2,9=2,10=2,19=2,28=1/1;
 99/9=1/99;
 Leave Link    1 at Wed May  9 00:38:58 2018, MaxMem=  671088640 cpu:       1.1
 (Enter /shared/apps/gaussian/G09_LINUX_LINDA/g09/l101.exe)
 ------------------------------
 Gaussian input prepared by ASE
 ------------------------------
 Symbolic Z-matrix:
 Charge =  0 Multiplicity = 2
 O                     2.51998   0.15973  -0.73622 
 O                     2.79655   0.6042    0.54388 
 C                     0.81239  -1.54296  -0.09631 
 C                    -1.96639   1.1669    0.09649 
 C                    -0.51351  -0.87215  -0.32344 
 C                    -0.57649   0.55599   0.21798 
 H                     2.17663   1.33246   0.67468 
 H                     1.74438  -0.7156   -0.55882 
 H                     1.16167  -1.57488   0.93644 
 H                     0.99064  -2.46592  -0.64251 
 H                    -1.98414   2.1899    0.46966 
 H                    -2.69688   0.59001   0.66298 
 H                    -2.29338   1.18746  -0.94403 
 H                    -1.3033   -1.4665    0.15504 
 H                    -0.74786  -0.86912  -1.39086 
 H                    -0.26406   0.55436   1.26681 
 H                     0.14376   1.16612  -0.33155 
 
 NAtoms=     17 NQM=     17 NQMF=      0 NMic=      0 NMicF=      0 NTot=     17.
                    Isotopes and Nuclear Properties:
 (Nuclear quadrupole moments (NQMom) in fm**2, nuclear magnetic moments (NMagM)
  in nuclear magnetons)

  Atom         1           2           3           4           5           6           7           8           9          10
 IAtWgt=          16          16          12          12          12          12           1           1           1           1
 AtmWgt=  15.9949146  15.9949146  12.0000000  12.0000000  12.0000000  12.0000000   1.0078250   1.0078250   1.0078250   1.0078250
 NucSpn=           0           0           0           0           0           0           1           1           1           1
 AtZEff=   0.0000000   0.0000000   0.0000000   0.0000000   0.0000000   0.0000000   0.0000000   0.0000000   0.0000000   0.0000000
 NQMom=    0.0000000   0.0000000   0.0000000   0.0000000   0.0000000   0.0000000   0.0000000   0.0000000   0.0000000   0.0000000
 NMagM=    0.0000000   0.0000000   0.0000000   0.0000000   0.0000000   0.0000000   2.7928460   2.7928460   2.7928460   2.7928460

  Atom        11          12          13          14          15          16          17
 IAtWgt=           1           1           1           1           1           1           1
 AtmWgt=   1.0078250   1.0078250   1.0078250   1.0078250   1.0078250   1.0078250   1.0078250
 NucSpn=           1           1           1           1           1           1           1
 AtZEff=   0.0000000   0.0000000   0.0000000   0.0000000   0.0000000   0.0000000   0.0000000
 NQMom=    0.0000000   0.0000000   0.0000000   0.0000000   0.0000000   0.0000000   0.0000000
 NMagM=    2.7928460   2.7928460   2.7928460   2.7928460   2.7928460   2.7928460   2.7928460
 Leave Link  101 at Wed May  9 00:38:58 2018, MaxMem=  671088640 cpu:       1.2
 (Enter /shared/apps/gaussian/G09_LINUX_LINDA/g09/l103.exe)

 GradGradGradGradGradGradGradGradGradGradGradGradGradGradGradGradGradGrad
 Berny optimization.
 Initialization pass.
                           ----------------------------
                           !    Initial Parameters    !
                           ! (Angstroms and Degrees)  !
 --------------------------                            --------------------------
 ! Name  Definition              Value          Derivative Info.                !
 --------------------------------------------------------------------------------
 ! R1    R(1,2)                  1.383          calculate D2E/DX2 analytically  !
 ! R2    R(1,8)                  1.1829         calculate D2E/DX2 analytically  !
 ! R3    R(2,7)                  0.9653         calculate D2E/DX2 analytically  !
 ! R4    R(3,5)                  1.5032         calculate D2E/DX2 analytically  !
 ! R5    R(3,8)                  1.3293         calculate D2E/DX2 analytically  !
 ! R6    R(3,9)                  1.0907         calculate D2E/DX2 analytically  !
 ! R7    R(3,10)                 1.0872         calculate D2E/DX2 analytically  !
 ! R8    R(4,6)                  1.5231         calculate D2E/DX2 analytically  !
 ! R9    R(4,11)                 1.0891         calculate D2E/DX2 analytically  !
 ! R10   R(4,12)                 1.0896         calculate D2E/DX2 analytically  !
 ! R11   R(4,13)                 1.0909         calculate D2E/DX2 analytically  !
 ! R12   R(5,6)                  1.5286         calculate D2E/DX2 analytically  !
 ! R13   R(5,14)                 1.0982         calculate D2E/DX2 analytically  !
 ! R14   R(5,15)                 1.0928         calculate D2E/DX2 analytically  !
 ! R15   R(6,16)                 1.0944         calculate D2E/DX2 analytically  !
 ! R16   R(6,17)                 1.0922         calculate D2E/DX2 analytically  !
 ! A1    A(2,1,8)              103.305          calculate D2E/DX2 analytically  !
 ! A2    A(1,2,7)              103.8546         calculate D2E/DX2 analytically  !
 ! A3    A(5,3,8)              106.7445         calculate D2E/DX2 analytically  !
 ! A4    A(5,3,9)              116.0147         calculate D2E/DX2 analytically  !
 ! A5    A(5,3,10)             116.5866         calculate D2E/DX2 analytically  !
 ! A6    A(8,3,9)               97.0739         calculate D2E/DX2 analytically  !
 ! A7    A(8,3,10)             103.8058         calculate D2E/DX2 analytically  !
 ! A8    A(9,3,10)             113.4759         calculate D2E/DX2 analytically  !
 ! A9    A(6,4,11)             111.3649         calculate D2E/DX2 analytically  !
 ! A10   A(6,4,12)             110.9738         calculate D2E/DX2 analytically  !
 ! A11   A(6,4,13)             110.9266         calculate D2E/DX2 analytically  !
 ! A12   A(11,4,12)            107.9538         calculate D2E/DX2 analytically  !
 ! A13   A(11,4,13)            107.7127         calculate D2E/DX2 analytically  !
 ! A14   A(12,4,13)            107.7528         calculate D2E/DX2 analytically  !
 ! A15   A(3,5,6)              113.562          calculate D2E/DX2 analytically  !
 ! A16   A(3,5,14)             109.0876         calculate D2E/DX2 analytically  !
 ! A17   A(3,5,15)             109.7532         calculate D2E/DX2 analytically  !
 ! A18   A(6,5,14)             108.7651         calculate D2E/DX2 analytically  !
 ! A19   A(6,5,15)             109.5432         calculate D2E/DX2 analytically  !
 ! A20   A(14,5,15)            105.8344         calculate D2E/DX2 analytically  !
 ! A21   A(4,6,5)              112.5867         calculate D2E/DX2 analytically  !
 ! A22   A(4,6,16)             109.7282         calculate D2E/DX2 analytically  !
 ! A23   A(4,6,17)             109.7288         calculate D2E/DX2 analytically  !
 ! A24   A(5,6,16)             109.0441         calculate D2E/DX2 analytically  !
 ! A25   A(5,6,17)             108.4525         calculate D2E/DX2 analytically  !
 ! A26   A(16,6,17)            107.1431         calculate D2E/DX2 analytically  !
 ! A27   A(1,8,3)              166.5217         calculate D2E/DX2 analytically  !
 ! D1    D(8,1,2,7)            -93.748          calculate D2E/DX2 analytically  !
 ! D2    D(2,1,8,3)             24.9768         calculate D2E/DX2 analytically  !
 ! D3    D(8,3,5,6)            -51.6571         calculate D2E/DX2 analytically  !
 ! D4    D(8,3,5,14)          -173.142          calculate D2E/DX2 analytically  !
 ! D5    D(8,3,5,15)            71.324          calculate D2E/DX2 analytically  !
 ! D6    D(9,3,5,6)             55.197          calculate D2E/DX2 analytically  !
 ! D7    D(9,3,5,14)           -66.2878         calculate D2E/DX2 analytically  !
 ! D8    D(9,3,5,15)           178.1782         calculate D2E/DX2 analytically  !
 ! D9    D(10,3,5,6)          -167.0763         calculate D2E/DX2 analytically  !
 ! D10   D(10,3,5,14)           71.4389         calculate D2E/DX2 analytically  !
 ! D11   D(10,3,5,15)          -44.0951         calculate D2E/DX2 analytically  !
 ! D12   D(5,3,8,1)             75.814          calculate D2E/DX2 analytically  !
 ! D13   D(9,3,8,1)            -44.1113         calculate D2E/DX2 analytically  !
 ! D14   D(10,3,8,1)          -160.4614         calculate D2E/DX2 analytically  !
 ! D15   D(11,4,6,5)          -178.8874         calculate D2E/DX2 analytically  !
 ! D16   D(11,4,6,16)           59.4703         calculate D2E/DX2 analytically  !
 ! D17   D(11,4,6,17)          -57.9988         calculate D2E/DX2 analytically  !
 ! D18   D(12,4,6,5)            60.8183         calculate D2E/DX2 analytically  !
 ! D19   D(12,4,6,16)          -60.824          calculate D2E/DX2 analytically  !
 ! D20   D(12,4,6,17)         -178.2931         calculate D2E/DX2 analytically  !
 ! D21   D(13,4,6,5)           -58.9301         calculate D2E/DX2 analytically  !
 ! D22   D(13,4,6,16)          179.4275         calculate D2E/DX2 analytically  !
 ! D23   D(13,4,6,17)           61.9585         calculate D2E/DX2 analytically  !
 ! D24   D(3,5,6,4)           -174.509          calculate D2E/DX2 analytically  !
 ! D25   D(3,5,6,16)           -52.4789         calculate D2E/DX2 analytically  !
 ! D26   D(3,5,6,17)            63.8745         calculate D2E/DX2 analytically  !
 ! D27   D(14,5,6,4)           -52.8442         calculate D2E/DX2 analytically  !
 ! D28   D(14,5,6,16)           69.1859         calculate D2E/DX2 analytically  !
 ! D29   D(14,5,6,17)         -174.4607         calculate D2E/DX2 analytically  !
 ! D30   D(15,5,6,4)            62.3945         calculate D2E/DX2 analytically  !
 ! D31   D(15,5,6,16)         -175.5754         calculate D2E/DX2 analytically  !
 ! D32   D(15,5,6,17)          -59.222          calculate D2E/DX2 analytically  !
 --------------------------------------------------------------------------------
 Trust Radius=3.00D-01 FncErr=1.00D-07 GrdErr=1.00D-06
 Number of steps in this run=     85 maximum allowed number of steps=    102.
 Search for a saddle point of order  1.
 GradGradGradGradGradGradGradGradGradGradGradGradGradGradGradGradGradGrad

 Leave Link  103 at Wed May  9 00:38:58 2018, MaxMem=  671088640 cpu:       0.2
 (Enter /shared/apps/gaussian/G09_LINUX_LINDA/g09/l202.exe)
                          Input orientation:                          
 ---------------------------------------------------------------------
 Center     Atomic      Atomic             Coordinates (Angstroms)
 Number     Number       Type             X           Y           Z
 ---------------------------------------------------------------------
      1          8           0        2.519984    0.159728   -0.736216
      2          8           0        2.796552    0.604203    0.543882
      3          6           0        0.812393   -1.542956   -0.096313
      4          6           0       -1.966392    1.166904    0.096490
      5          6           0       -0.513510   -0.872154   -0.323441
      6          6           0       -0.576489    0.555989    0.217979
      7          1           0        2.176628    1.332459    0.674680
      8          1           0        1.744378   -0.715604   -0.558821
      9          1           0        1.161669   -1.574879    0.936435
     10          1           0        0.990642   -2.465920   -0.642514
     11          1           0       -1.984142    2.189901    0.469656
     12          1           0       -2.696877    0.590010    0.662975
     13          1           0       -2.293378    1.187456   -0.944034
     14          1           0       -1.303296   -1.466500    0.155040
     15          1           0       -0.747857   -0.869118   -1.390862
     16          1           0       -0.264064    0.554360    1.266812
     17          1           0        0.143759    1.166120   -0.331549
 ---------------------------------------------------------------------
                    Distance matrix (angstroms):
                    1          2          3          4          5
     1  O    0.000000
     2  O    1.383003   0.000000
     3  C    2.494890   2.992829   0.000000
     4  C    4.672834   4.816889   3.886150   0.000000
     5  C    3.230673   3.726712   1.503190   2.538694   0.000000
     6  C    3.264300   3.389091   2.536403   1.523092   1.528625
     7  H    1.866499   0.965282   3.274687   4.186445   3.618481
     8  H    1.182895   2.016163   1.329293   4.212254   2.275515
     9  H    2.766160   2.752333   1.090679   4.243542   2.210732
    10  H    3.040016   3.754265   1.087186   4.742108   2.214581
    11  H    5.085556   5.037358   4.698420   1.089077   3.488258
    12  H    5.418350   5.494737   4.176247   1.089642   2.806784
    13  H    4.926244   5.334929   4.221326   1.090886   2.791964
    14  H    4.249285   4.609529   2.131939   2.716237   1.098159
    15  H    3.487961   4.298458   2.136422   2.800434   1.092847
    16  H    3.452359   3.145232   2.723160   2.154712   2.150830
    17  H    2.612092   2.849462   2.800267   2.153127   2.141642
                    6          7          8          9         10
     6  C    0.000000
     7  H    2.896745   0.000000
     8  H    2.758041   2.429594   0.000000
     9  H    2.842176   3.090513   1.820355   0.000000
    10  H    3.511165   4.191569   1.907546   1.821068   0.000000
    11  H    2.171290   4.253146   4.837518   4.928242   5.635861
    12  H    2.166847   4.929748   4.787709   4.432820   4.963951
    13  H    2.167195   4.756282   4.480346   4.806663   4.921673
    14  H    2.150039   4.496005   3.218968   2.588122   2.626230
    15  H    2.156077   4.203096   2.631938   3.092039   2.476324
    16  H    1.094377   2.629266   2.996595   2.583703   3.787071
    17  H    1.092245   2.274361   2.480830   3.187004   3.742409
                   11         12         13         14         15
    11  H    0.000000
    12  H    1.762105   0.000000
    13  H    1.760409   1.761315   0.000000
    14  H    3.732532   2.535606   3.038373   0.000000
    15  H    3.787812   3.185276   2.611089   1.747911   0.000000
    16  H    2.503821   2.506884   3.067045   2.529804   3.053453
    17  H    2.493596   3.064343   2.513013   3.043259   2.461568
                   16         17
    16  H    0.000000
    17  H    1.759354   0.000000
 Stoichiometry    C4H11O2(2)
 Framework group  C1[X(C4H11O2)]
 Deg. of freedom    45
 Full point group                 C1      NOp   1
 Largest Abelian subgroup         C1      NOp   1
 Largest concise Abelian subgroup C1      NOp   1
                         Standard orientation:                         
 ---------------------------------------------------------------------
 Center     Atomic      Atomic             Coordinates (Angstroms)
 Number     Number       Type             X           Y           Z
 ---------------------------------------------------------------------
      1          8           0        1.994200   -0.228996    0.718505
      2          8           0        2.183620   -0.963586   -0.437866
      3          6           0        0.500199    1.505445   -0.273539
      4          6           0       -2.600910   -0.807107    0.097116
      5          6           0       -0.894038    1.072091    0.084075
      6          6           0       -1.148334   -0.417829   -0.144325
      7          1           0        1.474246   -1.617827   -0.414903
      8          1           0        1.330993    0.681388    0.357120
      9          1           0        0.827235    1.275253   -1.288251
     10          1           0        0.805409    2.491930    0.066559
     11          1           0       -2.755595   -1.874775   -0.052038
     12          1           0       -3.265703   -0.273372   -0.581484
     13          1           0       -2.904234   -0.567108    1.117130
     14          1           0       -1.613458    1.648767   -0.512442
     15          1           0       -1.102670    1.322881    1.127096
     16          1           0       -0.862021   -0.676054   -1.168535
     17          1           0       -0.498258   -0.986032    0.524663
 ---------------------------------------------------------------------
 Rotational constants (GHZ):      4.7364111      1.6549356      1.3540939
 Leave Link  202 at Wed May  9 00:38:58 2018, MaxMem=  671088640 cpu:       0.7
 (Enter /shared/apps/gaussian/G09_LINUX_LINDA/g09/l301.exe)
 Standard basis: 6-311+G(2df,2p) (5D, 7F)
 Ernie: Thresh=  0.10000D-02 Tol=  0.10000D-05 Strict=F.
 There are   303 symmetry adapted basis functions of A   symmetry.
 Integral buffers will be    131072 words long.
 Raffenetti 2 integral format.
 Two-electron integral symmetry is turned on.
   303 basis functions,   433 primitive gaussians,   333 cartesian basis functions
    26 alpha electrons       25 beta electrons
       nuclear repulsion energy       252.1149353471 Hartrees.
 IExCor= 4336 DFT=T Ex+Corr=M062X ExCW=0 ScaHFX=  0.540000
 ScaDFX=  1.000000  1.000000  1.000000  1.000000 ScalE2=  1.000000  1.000000
 IRadAn=      0 IRanWt=     -1 IRanGd=            0 ICorTp=0
 NAtoms=   17 NActive=   17 NUniq=   17 SFac= 1.00D+00 NAtFMM=   50 NAOKFM=F Big=F
 Leave Link  301 at Wed May  9 00:38:58 2018, MaxMem=  671088640 cpu:       1.0
 (Enter /shared/apps/gaussian/G09_LINUX_LINDA/g09/l302.exe)
 NPDir=0 NMtPBC=     1 NCelOv=     1 NCel=       1 NClECP=     1 NCelD=      1
         NCelK=      1 NCelE2=     1 NClLst=     1 CellRange=     0.0.
 One-electron integrals computed using PRISM.
 NBasis=   303 RedAO= T  NBF=   303
 NBsUse=   303 1.00D-06 NBFU=   303
 Precomputing XC quadrature grid using
 IXCGrd= 2 IRadAn=           0 IRanWt=          -1 IRanGd=           0 AccXCQ= 0.00D+00.
 NRdTot=    1095 NPtTot=      139000 NUsed=      146899 NTot=      146931
 NSgBfM=   333   333   333   333   333 NAtAll=    17    17.
 Leave Link  302 at Wed May  9 00:39:00 2018, MaxMem=  671088640 cpu:      16.2
 (Enter /shared/apps/gaussian/G09_LINUX_LINDA/g09/l303.exe)
 DipDrv:  MaxL=1.
 Leave Link  303 at Wed May  9 00:39:00 2018, MaxMem=  671088640 cpu:       3.5
 (Enter /shared/apps/gaussian/G09_LINUX_LINDA/g09/l401.exe)
 Harris functional with IExCor= 1009 diagonalized for initial guess.
 ExpMin= 4.38D-02 ExpMax= 8.59D+03 ExpMxC= 1.30D+03 IAcc=2 IRadAn=         0 AccDes= 0.00D+00
 HarFok:  IExCor= 1009 AccDes= 0.00D+00 IRadAn=         0 IDoV= 1
 ScaDFX=  1.000000  1.000000  1.000000  1.000000
 FoFCou: FMM=F IPFlag=           0 FMFlag=      100000 FMFlg1=           0
         NFxFlg=           0 DoJE=T BraDBF=F KetDBF=T FulRan=T
         Omega=  0.000000  0.000000  1.000000  0.000000  0.000000 ICntrl=     500 IOpCl=  0
         NMat0=    1 NMatS0=    1 NMatT0=    0 NMatD0=    1 NMtDS0=    0 NMtDT0=    0
         I1Cent=           4 NGrid=           0.
 Petite list used in FoFCou.
 Harris En= -309.192127238120    
 Initial guess orbital symmetries:
 Alpha Orbitals:
       Occupied  (A) (A) (A) (A) (A) (A) (A) (A) (A) (A) (A) (A)
                 (A) (A) (A) (A) (A) (A) (A) (A) (A) (A) (A) (A)
                 (A) (A)
       Virtual   (A) (A) (A) (A) (A) (A) (A) (A) (A) (A) (A) (A)
                 (A) (A) (A) (A) (A) (A) (A) (A) (A) (A) (A) (A)
                 (A) (A) (A) (A) (A) (A) (A) (A) (A) (A) (A) (A)
                 (A) (A) (A) (A) (A) (A) (A) (A) (A) (A) (A) (A)
                 (A) (A) (A) (A) (A) (A) (A) (A) (A) (A) (A) (A)
                 (A) (A) (A) (A) (A) (A) (A) (A) (A) (A) (A) (A)
                 (A) (A) (A) (A) (A) (A) (A) (A) (A) (A) (A) (A)
                 (A) (A) (A) (A) (A) (A) (A) (A) (A) (A) (A) (A)
                 (A) (A) (A) (A) (A) (A) (A) (A) (A) (A) (A) (A)
                 (A) (A) (A) (A) (A) (A) (A) (A) (A) (A) (A) (A)
                 (A) (A) (A) (A) (A) (A) (A) (A) (A) (A) (A) (A)
                 (A) (A) (A) (A) (A) (A) (A) (A) (A) (A) (A) (A)
                 (A) (A) (A) (A) (A) (A) (A) (A) (A) (A) (A) (A)
                 (A) (A) (A) (A) (A) (A) (A) (A) (A) (A) (A) (A)
                 (A) (A) (A) (A) (A) (A) (A) (A) (A) (A) (A) (A)
                 (A) (A) (A) (A) (A) (A) (A) (A) (A) (A) (A) (A)
                 (A) (A) (A) (A) (A) (A) (A) (A) (A) (A) (A) (A)
                 (A) (A) (A) (A) (A) (A) (A) (A) (A) (A) (A) (A)
                 (A) (A) (A) (A) (A) (A) (A) (A) (A) (A) (A) (A)
                 (A) (A) (A) (A) (A) (A) (A) (A) (A) (A) (A) (A)
                 (A) (A) (A) (A) (A) (A) (A) (A) (A) (A) (A) (A)
                 (A) (A) (A) (A) (A) (A) (A) (A) (A) (A) (A) (A)
                 (A) (A) (A) (A) (A) (A) (A) (A) (A) (A) (A) (A)
                 (A)
 Beta  Orbitals:
       Occupied  (A) (A) (A) (A) (A) (A) (A) (A) (A) (A) (A) (A)
                 (A) (A) (A) (A) (A) (A) (A) (A) (A) (A) (A) (A)
                 (A)
       Virtual   (A) (A) (A) (A) (A) (A) (A) (A) (A) (A) (A) (A)
                 (A) (A) (A) (A) (A) (A) (A) (A) (A) (A) (A) (A)
                 (A) (A) (A) (A) (A) (A) (A) (A) (A) (A) (A) (A)
                 (A) (A) (A) (A) (A) (A) (A) (A) (A) (A) (A) (A)
                 (A) (A) (A) (A) (A) (A) (A) (A) (A) (A) (A) (A)
                 (A) (A) (A) (A) (A) (A) (A) (A) (A) (A) (A) (A)
                 (A) (A) (A) (A) (A) (A) (A) (A) (A) (A) (A) (A)
                 (A) (A) (A) (A) (A) (A) (A) (A) (A) (A) (A) (A)
                 (A) (A) (A) (A) (A) (A) (A) (A) (A) (A) (A) (A)
                 (A) (A) (A) (A) (A) (A) (A) (A) (A) (A) (A) (A)
                 (A) (A) (A) (A) (A) (A) (A) (A) (A) (A) (A) (A)
                 (A) (A) (A) (A) (A) (A) (A) (A) (A) (A) (A) (A)
                 (A) (A) (A) (A) (A) (A) (A) (A) (A) (A) (A) (A)
                 (A) (A) (A) (A) (A) (A) (A) (A) (A) (A) (A) (A)
                 (A) (A) (A) (A) (A) (A) (A) (A) (A) (A) (A) (A)
                 (A) (A) (A) (A) (A) (A) (A) (A) (A) (A) (A) (A)
                 (A) (A) (A) (A) (A) (A) (A) (A) (A) (A) (A) (A)
                 (A) (A) (A) (A) (A) (A) (A) (A) (A) (A) (A) (A)
                 (A) (A) (A) (A) (A) (A) (A) (A) (A) (A) (A) (A)
                 (A) (A) (A) (A) (A) (A) (A) (A) (A) (A) (A) (A)
                 (A) (A) (A) (A) (A) (A) (A) (A) (A) (A) (A) (A)
                 (A) (A) (A) (A) (A) (A) (A) (A) (A) (A) (A) (A)
                 (A) (A) (A) (A) (A) (A) (A) (A) (A) (A) (A) (A)
                 (A) (A)
 The electronic state of the initial guess is 2-A.
 Initial guess <Sx>= 0.0000 <Sy>= 0.0000 <Sz>= 0.5000 <S**2>= 0.7500 S= 0.5000
 Leave Link  401 at Wed May  9 00:39:06 2018, MaxMem=  671088640 cpu:      51.5
 (Enter /shared/apps/gaussian/G09_LINUX_LINDA/g09/l502.exe)
 UHF open shell SCF:
 Requested convergence on RMS density matrix=1.00D-08 within 128 cycles.
 Requested convergence on MAX density matrix=1.00D-06.
 Requested convergence on             energy=1.00D-06.
 No special actions if energy rises.
 Using DIIS extrapolation, IDIIS=  1040.
 Integral symmetry usage will be decided dynamically.
       146733 words used for storage of precomputed grid.
 IEnd=      506644 IEndB=      506644 NGot=   671088640 MDV=   670709859
 LenX=   670709859 LenY=   670598529
 Fock matrices will be formed incrementally for  20 cycles.

 Cycle   1  Pass 1  IDiag  1:
 FoFCou: FMM=F IPFlag=           0 FMFlag=      100000 FMFlg1=           0
         NFxFlg=           0 DoJE=F BraDBF=F KetDBF=F FulRan=T
         Omega=  0.000000  0.000000  1.000000  0.000000  0.000000 ICntrl=       0 IOpCl=  1
         NMat0=    1 NMatS0=    1 NMatT0=    0 NMatD0=    1 NMtDS0=    0 NMtDT0=    0
         I1Cent=           0 NGrid=           0.
 Symmetry not used in FoFCou.
 E= -309.055459924166    
 DIIS: error= 2.24D-02 at cycle   1 NSaved=   1.
 NSaved= 1 IEnMin= 1 EnMin= -309.055459924166     IErMin= 1 ErrMin= 2.24D-02
 ErrMax= 2.24D-02 EMaxC= 1.00D-01 BMatC= 9.98D-01 BMatP= 9.98D-01
 IDIUse=3 WtCom= 7.76D-01 WtEn= 2.24D-01
 Coeff-Com:  0.100D+01
 Coeff-En:   0.100D+01
 Coeff:      0.100D+01
 Gap=     0.298 Goal=   None    Shift=    0.000
 Gap=     0.344 Goal=   None    Shift=    0.000
 GapD=    0.298 DampG=1.000 DampE=0.500 DampFc=0.5000 IDamp=-1.
 Damping current iteration by 5.00D-01
 RMSDP=4.15D-03 MaxDP=2.95D-01              OVMax= 2.52D-01

 Cycle   2  Pass 1  IDiag  1:
 RMSU=  1.32D-03    CP:  9.00D-01
 E= -309.165966308071     Delta-E=       -0.110506383905 Rises=F Damp=T
 DIIS: error= 7.62D-03 at cycle   2 NSaved=   2.
 NSaved= 2 IEnMin= 2 EnMin= -309.165966308071     IErMin= 2 ErrMin= 7.62D-03
 ErrMax= 7.62D-03 EMaxC= 1.00D-01 BMatC= 7.95D-02 BMatP= 9.98D-01
 IDIUse=3 WtCom= 9.24D-01 WtEn= 7.62D-02
 Coeff-Com: -0.998D-01 0.110D+01
 Coeff-En:   0.000D+00 0.100D+01
 Coeff:     -0.922D-01 0.109D+01
 Gap=     0.318 Goal=   None    Shift=    0.000
 Gap=     0.331 Goal=   None    Shift=    0.000
 RMSDP=1.46D-03 MaxDP=7.79D-02 DE=-1.11D-01 OVMax= 1.33D-01

 Cycle   3  Pass 1  IDiag  1:
 RMSU=  9.41D-04    CP:  9.28D-01  7.33D-01
 E= -309.274109310272     Delta-E=       -0.108143002202 Rises=F Damp=F
 DIIS: error= 3.34D-03 at cycle   3 NSaved=   3.
 NSaved= 3 IEnMin= 3 EnMin= -309.274109310272     IErMin= 3 ErrMin= 3.34D-03
 ErrMax= 3.34D-03 EMaxC= 1.00D-01 BMatC= 2.13D-02 BMatP= 7.95D-02
 IDIUse=3 WtCom= 9.67D-01 WtEn= 3.34D-02
 Coeff-Com: -0.838D-01 0.360D+00 0.724D+00
 Coeff-En:   0.000D+00 0.000D+00 0.100D+01
 Coeff:     -0.810D-01 0.348D+00 0.733D+00
 Gap=     0.311 Goal=   None    Shift=    0.000
 Gap=     0.265 Goal=   None    Shift=    0.000
 RMSDP=4.21D-04 MaxDP=3.08D-02 DE=-1.08D-01 OVMax= 6.56D-02

 Cycle   4  Pass 1  IDiag  1:
 RMSU=  2.05D-04    CP:  9.14D-01  8.38D-01  8.62D-01
 E= -309.278403900755     Delta-E=       -0.004294590483 Rises=F Damp=F
 DIIS: error= 2.05D-03 at cycle   4 NSaved=   4.
 NSaved= 4 IEnMin= 4 EnMin= -309.278403900755     IErMin= 4 ErrMin= 2.05D-03
 ErrMax= 2.05D-03 EMaxC= 1.00D-01 BMatC= 6.50D-03 BMatP= 2.13D-02
 IDIUse=3 WtCom= 9.79D-01 WtEn= 2.05D-02
 Coeff-Com: -0.309D-01 0.712D-01 0.383D+00 0.577D+00
 Coeff-En:   0.000D+00 0.000D+00 0.657D-01 0.934D+00
 Coeff:     -0.303D-01 0.698D-01 0.376D+00 0.584D+00
 Gap=     0.307 Goal=   None    Shift=    0.000
 Gap=     0.270 Goal=   None    Shift=    0.000
 RMSDP=2.22D-04 MaxDP=1.93D-02 DE=-4.29D-03 OVMax= 1.00D-02

 Cycle   5  Pass 1  IDiag  1:
 RMSU=  6.54D-05    CP:  9.20D-01  7.86D-01  9.54D-01  6.84D-01
 E= -309.279767292536     Delta-E=       -0.001363391780 Rises=F Damp=F
 DIIS: error= 6.54D-04 at cycle   5 NSaved=   5.
 NSaved= 5 IEnMin= 5 EnMin= -309.279767292536     IErMin= 5 ErrMin= 6.54D-04
 ErrMax= 6.54D-04 EMaxC= 1.00D-01 BMatC= 3.42D-04 BMatP= 6.50D-03
 IDIUse=3 WtCom= 9.93D-01 WtEn= 6.54D-03
 Coeff-Com:  0.102D-02-0.159D-01 0.437D-01 0.145D+00 0.826D+00
 Coeff-En:   0.000D+00 0.000D+00 0.000D+00 0.000D+00 0.100D+01
 Coeff:      0.102D-02-0.158D-01 0.434D-01 0.144D+00 0.828D+00
 Gap=     0.309 Goal=   None    Shift=    0.000
 Gap=     0.272 Goal=   None    Shift=    0.000
 RMSDP=9.07D-05 MaxDP=8.03D-03 DE=-1.36D-03 OVMax= 1.21D-02

 Cycle   6  Pass 1  IDiag  1:
 RMSU=  2.97D-05    CP:  9.24D-01  7.58D-01  9.84D-01  7.19D-01  1.33D+00
 E= -309.279940953220     Delta-E=       -0.000173660685 Rises=F Damp=F
 DIIS: error= 3.97D-04 at cycle   6 NSaved=   6.
 NSaved= 6 IEnMin= 6 EnMin= -309.279940953220     IErMin= 6 ErrMin= 3.97D-04
 ErrMax= 3.97D-04 EMaxC= 1.00D-01 BMatC= 1.60D-04 BMatP= 3.42D-04
 IDIUse=3 WtCom= 9.96D-01 WtEn= 3.97D-03
 Coeff-Com:  0.887D-02-0.244D-01-0.687D-01-0.986D-01 0.396D+00 0.787D+00
 Coeff-En:   0.000D+00 0.000D+00 0.000D+00 0.000D+00 0.000D+00 0.100D+01
 Coeff:      0.883D-02-0.243D-01-0.685D-01-0.982D-01 0.394D+00 0.788D+00
 Gap=     0.309 Goal=   None    Shift=    0.000
 Gap=     0.275 Goal=   None    Shift=    0.000
 RMSDP=5.31D-05 MaxDP=4.98D-03 DE=-1.74D-04 OVMax= 8.58D-03

 Cycle   7  Pass 1  IDiag  1:
 RMSU=  1.18D-05    CP:  9.25D-01  7.43D-01  9.97D-01  7.34D-01  1.63D+00
                    CP:  1.13D+00
 E= -309.280017036598     Delta-E=       -0.000076083378 Rises=F Damp=F
 DIIS: error= 2.31D-04 at cycle   7 NSaved=   7.
 NSaved= 7 IEnMin= 7 EnMin= -309.280017036598     IErMin= 7 ErrMin= 2.31D-04
 ErrMax= 2.31D-04 EMaxC= 1.00D-01 BMatC= 3.87D-05 BMatP= 1.60D-04
 IDIUse=3 WtCom= 9.98D-01 WtEn= 2.31D-03
 Coeff-Com:  0.369D-02-0.666D-02-0.400D-01-0.982D-01-0.710D-01 0.361D+00
 Coeff-Com:  0.851D+00
 Coeff-En:   0.000D+00 0.000D+00 0.000D+00 0.000D+00 0.000D+00 0.000D+00
 Coeff-En:   0.100D+01
 Coeff:      0.368D-02-0.665D-02-0.400D-01-0.980D-01-0.708D-01 0.361D+00
 Coeff:      0.851D+00
 Gap=     0.310 Goal=   None    Shift=    0.000
 Gap=     0.276 Goal=   None    Shift=    0.000
 RMSDP=3.53D-05 MaxDP=2.69D-03 DE=-7.61D-05 OVMax= 4.96D-03

 Cycle   8  Pass 1  IDiag  1:
 RMSU=  9.19D-06    CP:  9.26D-01  7.34D-01  1.01D+00  7.27D-01  1.81D+00
                    CP:  1.31D+00  1.22D+00
 E= -309.280036584501     Delta-E=       -0.000019547903 Rises=F Damp=F
 DIIS: error= 5.80D-05 at cycle   8 NSaved=   8.
 NSaved= 8 IEnMin= 8 EnMin= -309.280036584501     IErMin= 8 ErrMin= 5.80D-05
 ErrMax= 5.80D-05 EMaxC= 1.00D-01 BMatC= 4.28D-06 BMatP= 3.87D-05
 IDIUse=1 WtCom= 1.00D+00 WtEn= 0.00D+00
 Coeff-Com: -0.197D-03 0.171D-02 0.104D-02-0.159D-01-0.577D-01 0.719D-02
 Coeff-Com:  0.255D+00 0.809D+00
 Coeff:     -0.197D-03 0.171D-02 0.104D-02-0.159D-01-0.577D-01 0.719D-02
 Coeff:      0.255D+00 0.809D+00
 Gap=     0.310 Goal=   None    Shift=    0.000
 Gap=     0.276 Goal=   None    Shift=    0.000
 RMSDP=7.09D-06 MaxDP=3.07D-04 DE=-1.95D-05 OVMax= 1.59D-03

 Cycle   9  Pass 1  IDiag  1:
 RMSU=  3.13D-06    CP:  9.26D-01  7.33D-01  1.01D+00  7.22D-01  1.83D+00
                    CP:  1.34D+00  1.38D+00  1.21D+00
 E= -309.280038719947     Delta-E=       -0.000002135446 Rises=F Damp=F
 DIIS: error= 3.80D-05 at cycle   9 NSaved=   9.
 NSaved= 9 IEnMin= 9 EnMin= -309.280038719947     IErMin= 9 ErrMin= 3.80D-05
 ErrMax= 3.80D-05 EMaxC= 1.00D-01 BMatC= 1.22D-06 BMatP= 4.28D-06
 IDIUse=1 WtCom= 1.00D+00 WtEn= 0.00D+00
 Coeff-Com: -0.101D-02 0.203D-02 0.126D-01 0.210D-01 0.796D-02-0.111D+00
 Coeff-Com: -0.188D+00 0.253D+00 0.100D+01
 Coeff:     -0.101D-02 0.203D-02 0.126D-01 0.210D-01 0.796D-02-0.111D+00
 Coeff:     -0.188D+00 0.253D+00 0.100D+01
 Gap=     0.310 Goal=   None    Shift=    0.000
 Gap=     0.276 Goal=   None    Shift=    0.000
 RMSDP=7.26D-06 MaxDP=3.77D-04 DE=-2.14D-06 OVMax= 1.16D-03

 Cycle  10  Pass 1  IDiag  1:
 RMSU=  1.27D-06    CP:  9.26D-01  7.32D-01  1.01D+00  7.15D-01  1.86D+00
                    CP:  1.35D+00  1.48D+00  1.52D+00  1.43D+00
 E= -309.280039583604     Delta-E=       -0.000000863658 Rises=F Damp=F
 DIIS: error= 8.07D-06 at cycle  10 NSaved=  10.
 NSaved=10 IEnMin=10 EnMin= -309.280039583604     IErMin=10 ErrMin= 8.07D-06
 ErrMax= 8.07D-06 EMaxC= 1.00D-01 BMatC= 1.00D-07 BMatP= 1.22D-06
 IDIUse=1 WtCom= 1.00D+00 WtEn= 0.00D+00
 Coeff-Com:  0.788D-04-0.259D-03 0.429D-03 0.118D-02 0.903D-02-0.376D-02
 Coeff-Com: -0.363D-01-0.805D-01-0.414D-01 0.115D+01
 Coeff:      0.788D-04-0.259D-03 0.429D-03 0.118D-02 0.903D-02-0.376D-02
 Coeff:     -0.363D-01-0.805D-01-0.414D-01 0.115D+01
 Gap=     0.310 Goal=   None    Shift=    0.000
 Gap=     0.276 Goal=   None    Shift=    0.000
 RMSDP=3.22D-06 MaxDP=2.42D-04 DE=-8.64D-07 OVMax= 4.41D-04

 Cycle  11  Pass 1  IDiag  1:
 RMSU=  5.77D-07    CP:  9.26D-01  7.32D-01  1.01D+00  7.12D-01  1.87D+00
                    CP:  1.36D+00  1.50D+00  1.59D+00  1.68D+00  1.55D+00
 E= -309.280039702693     Delta-E=       -0.000000119089 Rises=F Damp=F
 DIIS: error= 3.94D-06 at cycle  11 NSaved=  11.
 NSaved=11 IEnMin=11 EnMin= -309.280039702693     IErMin=11 ErrMin= 3.94D-06
 ErrMax= 3.94D-06 EMaxC= 1.00D-01 BMatC= 1.48D-08 BMatP= 1.00D-07
 IDIUse=1 WtCom= 1.00D+00 WtEn= 0.00D+00
 Coeff-Com:  0.159D-03-0.336D-03-0.174D-02-0.308D-02-0.264D-03 0.149D-01
 Coeff-Com:  0.251D-01-0.378D-01-0.154D+00 0.545D-01 0.110D+01
 Coeff:      0.159D-03-0.336D-03-0.174D-02-0.308D-02-0.264D-03 0.149D-01
 Coeff:      0.251D-01-0.378D-01-0.154D+00 0.545D-01 0.110D+01
 Gap=     0.310 Goal=   None    Shift=    0.000
 Gap=     0.276 Goal=   None    Shift=    0.000
 RMSDP=1.44D-06 MaxDP=1.15D-04 DE=-1.19D-07 OVMax= 1.84D-04

 Cycle  12  Pass 1  IDiag  1:
 RMSU=  2.40D-07    CP:  9.26D-01  7.31D-01  1.01D+00  7.11D-01  1.87D+00
                    CP:  1.37D+00  1.51D+00  1.60D+00  1.77D+00  1.87D+00
                    CP:  1.49D+00
 E= -309.280039726576     Delta-E=       -0.000000023883 Rises=F Damp=F
 DIIS: error= 2.16D-06 at cycle  12 NSaved=  12.
 NSaved=12 IEnMin=12 EnMin= -309.280039726576     IErMin=12 ErrMin= 2.16D-06
 ErrMax= 2.16D-06 EMaxC= 1.00D-01 BMatC= 3.60D-09 BMatP= 1.48D-08
 IDIUse=1 WtCom= 1.00D+00 WtEn= 0.00D+00
 Coeff-Com: -0.135D-04 0.346D-04-0.111D-03-0.219D-03-0.117D-02 0.877D-03
 Coeff-Com:  0.645D-02 0.110D-01 0.414D-02-0.190D+00 0.704D-01 0.110D+01
 Coeff:     -0.135D-04 0.346D-04-0.111D-03-0.219D-03-0.117D-02 0.877D-03
 Coeff:      0.645D-02 0.110D-01 0.414D-02-0.190D+00 0.704D-01 0.110D+01
 Gap=     0.310 Goal=   None    Shift=    0.000
 Gap=     0.276 Goal=   None    Shift=    0.000
 RMSDP=4.88D-07 MaxDP=2.35D-05 DE=-2.39D-08 OVMax= 1.22D-04

 Cycle  13  Pass 1  IDiag  1:
 RMSU=  1.09D-07    CP:  9.26D-01  7.31D-01  1.01D+00  7.10D-01  1.87D+00
                    CP:  1.37D+00  1.50D+00  1.60D+00  1.80D+00  1.99D+00
                    CP:  1.79D+00  1.63D+00
 E= -309.280039733222     Delta-E=       -0.000000006646 Rises=F Damp=F
 DIIS: error= 1.11D-06 at cycle  13 NSaved=  13.
 NSaved=13 IEnMin=13 EnMin= -309.280039733222     IErMin=13 ErrMin= 1.11D-06
 ErrMax= 1.11D-06 EMaxC= 1.00D-01 BMatC= 1.23D-09 BMatP= 3.60D-09
 IDIUse=1 WtCom= 1.00D+00 WtEn= 0.00D+00
 Coeff-Com: -0.563D-04 0.121D-03 0.543D-03 0.100D-02-0.165D-03-0.464D-02
 Coeff-Com: -0.716D-02 0.144D-01 0.518D-01-0.592D-01-0.338D+00 0.205D+00
 Coeff-Com:  0.114D+01
 Coeff:     -0.563D-04 0.121D-03 0.543D-03 0.100D-02-0.165D-03-0.464D-02
 Coeff:     -0.716D-02 0.144D-01 0.518D-01-0.592D-01-0.338D+00 0.205D+00
 Coeff:      0.114D+01
 Gap=     0.310 Goal=   None    Shift=    0.000
 Gap=     0.276 Goal=   None    Shift=    0.000
 RMSDP=3.43D-07 MaxDP=1.60D-05 DE=-6.65D-09 OVMax= 9.53D-05

 Cycle  14  Pass 1  IDiag  1:
 RMSU=  6.17D-08    CP:  9.26D-01  7.31D-01  1.01D+00  7.10D-01  1.87D+00
                    CP:  1.37D+00  1.50D+00  1.60D+00  1.82D+00  2.06D+00
                    CP:  1.98D+00  2.15D+00  1.76D+00
 E= -309.280039735786     Delta-E=       -0.000000002564 Rises=F Damp=F
 DIIS: error= 4.39D-07 at cycle  14 NSaved=  14.
 NSaved=14 IEnMin=14 EnMin= -309.280039735786     IErMin=14 ErrMin= 4.39D-07
 ErrMax= 4.39D-07 EMaxC= 1.00D-01 BMatC= 2.57D-10 BMatP= 1.23D-09
 IDIUse=1 WtCom= 1.00D+00 WtEn= 0.00D+00
 Coeff-Com: -0.268D-05 0.603D-05 0.898D-04 0.186D-03 0.108D-03-0.813D-03
 Coeff-Com: -0.257D-02-0.339D-03 0.579D-02 0.389D-01-0.657D-01-0.277D+00
 Coeff-Com:  0.170D+00 0.113D+01
 Coeff:     -0.268D-05 0.603D-05 0.898D-04 0.186D-03 0.108D-03-0.813D-03
 Coeff:     -0.257D-02-0.339D-03 0.579D-02 0.389D-01-0.657D-01-0.277D+00
 Coeff:      0.170D+00 0.113D+01
 Gap=     0.310 Goal=   None    Shift=    0.000
 Gap=     0.276 Goal=   None    Shift=    0.000
 RMSDP=1.78D-07 MaxDP=8.41D-06 DE=-2.56D-09 OVMax= 5.09D-05

 Cycle  15  Pass 1  IDiag  1:
 RMSU=  2.58D-08    CP:  9.26D-01  7.31D-01  1.01D+00  7.10D-01  1.87D+00
                    CP:  1.37D+00  1.50D+00  1.60D+00  1.83D+00  2.09D+00
                    CP:  2.05D+00  2.42D+00  2.29D+00  1.45D+00
 E= -309.280039736307     Delta-E=       -0.000000000521 Rises=F Damp=F
 DIIS: error= 1.58D-07 at cycle  15 NSaved=  15.
 NSaved=15 IEnMin=15 EnMin= -309.280039736307     IErMin=15 ErrMin= 1.58D-07
 ErrMax= 1.58D-07 EMaxC= 1.00D-01 BMatC= 3.44D-11 BMatP= 2.57D-10
 IDIUse=1 WtCom= 1.00D+00 WtEn= 0.00D+00
 Coeff-Com:  0.912D-05-0.195D-04-0.817D-04-0.126D-03 0.280D-04 0.690D-03
 Coeff-Com:  0.932D-03-0.273D-02-0.772D-02 0.168D-01 0.502D-01-0.732D-01
 Coeff-Com: -0.177D+00 0.135D+00 0.106D+01
 Coeff:      0.912D-05-0.195D-04-0.817D-04-0.126D-03 0.280D-04 0.690D-03
 Coeff:      0.932D-03-0.273D-02-0.772D-02 0.168D-01 0.502D-01-0.732D-01
 Coeff:     -0.177D+00 0.135D+00 0.106D+01
 Gap=     0.310 Goal=   None    Shift=    0.000
 Gap=     0.276 Goal=   None    Shift=    0.000
 RMSDP=6.72D-08 MaxDP=5.38D-06 DE=-5.21D-10 OVMax= 1.47D-05

 Cycle  16  Pass 1  IDiag  1:
 RMSU=  1.42D-08    CP:  9.26D-01  7.31D-01  1.01D+00  7.10D-01  1.87D+00
                    CP:  1.37D+00  1.50D+00  1.60D+00  1.83D+00  2.10D+00
                    CP:  2.07D+00  2.48D+00  2.48D+00  1.70D+00  1.25D+00
 E= -309.280039736356     Delta-E=       -0.000000000048 Rises=F Damp=F
 DIIS: error= 3.89D-08 at cycle  16 NSaved=  16.
 NSaved=16 IEnMin=16 EnMin= -309.280039736356     IErMin=16 ErrMin= 3.89D-08
 ErrMax= 3.89D-08 EMaxC= 1.00D-01 BMatC= 3.23D-12 BMatP= 3.44D-11
 IDIUse=1 WtCom= 1.00D+00 WtEn= 0.00D+00
 Coeff-Com: -0.244D-06 0.227D-06-0.809D-05-0.623D-05-0.380D-05 0.706D-04
 Coeff-Com:  0.211D-03-0.154D-03-0.324D-03-0.263D-02 0.651D-02 0.223D-01
 Coeff-Com: -0.194D-01-0.108D+00 0.294D-01 0.107D+01
 Coeff:     -0.244D-06 0.227D-06-0.809D-05-0.623D-05-0.380D-05 0.706D-04
 Coeff:      0.211D-03-0.154D-03-0.324D-03-0.263D-02 0.651D-02 0.223D-01
 Coeff:     -0.194D-01-0.108D+00 0.294D-01 0.107D+01
 Gap=     0.310 Goal=   None    Shift=    0.000
 Gap=     0.276 Goal=   None    Shift=    0.000
 RMSDP=1.44D-08 MaxDP=6.71D-07 DE=-4.82D-11 OVMax= 2.92D-06

 Cycle  17  Pass 1  IDiag  1:
 RMSU=  3.53D-09    CP:  9.26D-01  7.31D-01  1.01D+00  7.10D-01  1.87D+00
                    CP:  1.37D+00  1.50D+00  1.60D+00  1.83D+00  2.10D+00
                    CP:  2.07D+00  2.49D+00  2.50D+00  1.74D+00  1.35D+00
                    CP:  1.27D+00
 E= -309.280039736359     Delta-E=       -0.000000000003 Rises=F Damp=F
 DIIS: error= 1.56D-08 at cycle  17 NSaved=  17.
 NSaved=17 IEnMin=17 EnMin= -309.280039736359     IErMin=17 ErrMin= 1.56D-08
 ErrMax= 1.56D-08 EMaxC= 1.00D-01 BMatC= 3.63D-13 BMatP= 3.23D-12
 IDIUse=1 WtCom= 1.00D+00 WtEn= 0.00D+00
 Coeff-Com: -0.675D-06 0.136D-05 0.303D-05 0.617D-05-0.264D-05-0.261D-04
 Coeff-Com: -0.190D-04 0.142D-03 0.428D-03-0.174D-02-0.216D-02 0.969D-02
 Coeff-Com:  0.880D-02-0.313D-01-0.817D-01 0.251D+00 0.846D+00
 Coeff:     -0.675D-06 0.136D-05 0.303D-05 0.617D-05-0.264D-05-0.261D-04
 Coeff:     -0.190D-04 0.142D-03 0.428D-03-0.174D-02-0.216D-02 0.969D-02
 Coeff:      0.880D-02-0.313D-01-0.817D-01 0.251D+00 0.846D+00
 Gap=     0.310 Goal=   None    Shift=    0.000
 Gap=     0.276 Goal=   None    Shift=    0.000
 RMSDP=2.94D-09 MaxDP=9.44D-08 DE=-3.18D-12 OVMax= 5.24D-07

 SCF Done:  E(UM062X) =  -309.280039736     A.U. after   17 cycles
             Convg  =    0.2943D-08             -V/T =  2.0036
 <Sx>= 0.0000 <Sy>= 0.0000 <Sz>= 0.5000 <S**2>= 0.7601 S= 0.5050
 <L.S>= 0.000000000000E+00
 KE= 3.081600473634D+02 PE=-1.227488431820D+03 EE= 3.579334093732D+02
 Annihilation of the first spin contaminant:
 S**2 before annihilation     0.7601,   after     0.7501
 Leave Link  502 at Wed May  9 00:44:00 2018, MaxMem=  671088640 cpu:    2931.7
 (Enter /shared/apps/gaussian/G09_LINUX_LINDA/g09/l801.exe)
 Range of M.O.s used for correlation:     1   303
 NBasis=   303 NAE=    26 NBE=    25 NFC=     0 NFV=     0
 NROrb=    303 NOA=    26 NOB=    25 NVA=   277 NVB=   278

 **** Warning!!: The largest alpha MO coefficient is  0.60547850D+02


 **** Warning!!: The largest beta MO coefficient is  0.58845156D+02

 Leave Link  801 at Wed May  9 00:44:00 2018, MaxMem=  671088640 cpu:       0.4
 (Enter /shared/apps/gaussian/G09_LINUX_LINDA/g09/l1101.exe)
 Using compressed storage, NAtomX=    17.
 Will process  18 centers per pass.
 Leave Link 1101 at Wed May  9 00:44:04 2018, MaxMem=  671088640 cpu:      34.3
 (Enter /shared/apps/gaussian/G09_LINUX_LINDA/g09/l1102.exe)
 Symmetrizing basis deriv contribution to polar:
 IMax=3 JMax=2 DiffMx= 0.00D+00
 Leave Link 1102 at Wed May  9 00:44:04 2018, MaxMem=  671088640 cpu:       1.9
 (Enter /shared/apps/gaussian/G09_LINUX_LINDA/g09/l1110.exe)
 Forming Gx(P) for the SCF density, NAtomX=    17.
 Integral derivatives from FoFDir/FoFCou, PRISM(SPDF).
 Do as many integral derivatives as possible in FoFDir.
 G2DrvN: MDV=     671088400.
 G2DrvN: will do    18 centers at a time, making    1 passes doing MaxLOS=3.
 Calling FoFCou, ICntrl=  3107 FMM=F I1Cent=   0 AccDes= 0.00D+00.
 FoFCou: FMM=F IPFlag=           0 FMFlag=      100000 FMFlg1=           0
         NFxFlg=           0 DoJE=F BraDBF=F KetDBF=F FulRan=T
         Omega=  0.000000  0.000000  1.000000  0.000000  0.000000 ICntrl=    3107 IOpCl=  1
         NMat0=    1 NMatS0=    1 NMatT0=    0 NMatD0=    1 NMtDS0=    0 NMtDT0=    0
         I1Cent=           0 NGrid=           0.
 Symmetry not used in FoFCou.
 FoFDir/FoFCou used for L=0 through L=3.
 End of G2Drv Frequency-dependent properties file   721 does not exist.
 End of G2Drv Frequency-dependent properties file   722 does not exist.
 Leave Link 1110 at Wed May  9 00:48:53 2018, MaxMem=  671088640 cpu:    2887.4
 (Enter /shared/apps/gaussian/G09_LINUX_LINDA/g09/l1002.exe)
 Minotr:  UHF open shell wavefunction.
          IDoAtm=11111111111111111
          Direct CPHF calculation.
          Differentiating once with respect to nuclear coordinates.
          Requested convergence is 1.0D-06 RMS, and 1.0D-05 maximum.
          Secondary convergence is 1.0D-12 RMS, and 1.0D-12 maximum.
          NewPWx=T KeepS1=F KeepF1=F KeepIn=T MapXYZ=F SortEE=F KeepMc=T.
          MDV=     671088466 using IRadAn=       2.
 Generate precomputed XC quadrature information.
          Solving linear equations simultaneously, MaxMat=       0.
 Integrals replicated using symmetry in FoFDir.
 MinBra= 0 MaxBra= 3 Meth= 1.
 IRaf=       0 NMat=  54 IRICut=     135 DoRegI=T DoRafI=T ISym2E= 2 JSym2E=2.
          There are    54 degrees of freedom in the 1st order CPHF.  IDoFFX=5.
     48 vectors produced by pass  0 Test12= 2.62D-10 1.85D-07 XBig12= 1.64D-01 2.37D-01.
 AX will form    48 AO Fock derivatives at one time.
     48 vectors produced by pass  1 Test12= 2.62D-10 1.85D-07 XBig12= 1.91D-02 3.52D-02.
     48 vectors produced by pass  2 Test12= 2.62D-10 1.85D-07 XBig12= 9.63D-04 4.91D-03.
     48 vectors produced by pass  3 Test12= 2.62D-10 1.85D-07 XBig12= 1.41D-05 4.49D-04.
     48 vectors produced by pass  4 Test12= 2.62D-10 1.85D-07 XBig12= 2.23D-07 7.96D-05.
     23 vectors produced by pass  5 Test12= 2.62D-10 1.85D-07 XBig12= 2.89D-09 5.03D-06.
      4 vectors produced by pass  6 Test12= 2.62D-10 1.85D-07 XBig12= 2.71D-11 5.01D-07.
 Inverted reduced A of dimension   267 with in-core refinement.
 End of Minotr Frequency-dependent properties file   721 does not exist.
 End of Minotr Frequency-dependent properties file   722 does not exist.
 Leave Link 1002 at Wed May  9 00:59:24 2018, MaxMem=  671088640 cpu:    6290.1
 (Enter /shared/apps/gaussian/G09_LINUX_LINDA/g09/l601.exe)
 Copying SCF densities to generalized density rwf, IOpCl= 1 IROHF=0.

 **********************************************************************

            Population analysis using the SCF density.

 **********************************************************************

 Orbital symmetries:
 Alpha Orbitals:
       Occupied  (A) (A) (A) (A) (A) (A) (A) (A) (A) (A) (A) (A)
                 (A) (A) (A) (A) (A) (A) (A) (A) (A) (A) (A) (A)
                 (A) (A)
       Virtual   (A) (A) (A) (A) (A) (A) (A) (A) (A) (A) (A) (A)
                 (A) (A) (A) (A) (A) (A) (A) (A) (A) (A) (A) (A)
                 (A) (A) (A) (A) (A) (A) (A) (A) (A) (A) (A) (A)
                 (A) (A) (A) (A) (A) (A) (A) (A) (A) (A) (A) (A)
                 (A) (A) (A) (A) (A) (A) (A) (A) (A) (A) (A) (A)
                 (A) (A) (A) (A) (A) (A) (A) (A) (A) (A) (A) (A)
                 (A) (A) (A) (A) (A) (A) (A) (A) (A) (A) (A) (A)
                 (A) (A) (A) (A) (A) (A) (A) (A) (A) (A) (A) (A)
                 (A) (A) (A) (A) (A) (A) (A) (A) (A) (A) (A) (A)
                 (A) (A) (A) (A) (A) (A) (A) (A) (A) (A) (A) (A)
                 (A) (A) (A) (A) (A) (A) (A) (A) (A) (A) (A) (A)
                 (A) (A) (A) (A) (A) (A) (A) (A) (A) (A) (A) (A)
                 (A) (A) (A) (A) (A) (A) (A) (A) (A) (A) (A) (A)
                 (A) (A) (A) (A) (A) (A) (A) (A) (A) (A) (A) (A)
                 (A) (A) (A) (A) (A) (A) (A) (A) (A) (A) (A) (A)
                 (A) (A) (A) (A) (A) (A) (A) (A) (A) (A) (A) (A)
                 (A) (A) (A) (A) (A) (A) (A) (A) (A) (A) (A) (A)
                 (A) (A) (A) (A) (A) (A) (A) (A) (A) (A) (A) (A)
                 (A) (A) (A) (A) (A) (A) (A) (A) (A) (A) (A) (A)
                 (A) (A) (A) (A) (A) (A) (A) (A) (A) (A) (A) (A)
                 (A) (A) (A) (A) (A) (A) (A) (A) (A) (A) (A) (A)
                 (A) (A) (A) (A) (A) (A) (A) (A) (A) (A) (A) (A)
                 (A) (A) (A) (A) (A) (A) (A) (A) (A) (A) (A) (A)
                 (A)
 Beta  Orbitals:
       Occupied  (A) (A) (A) (A) (A) (A) (A) (A) (A) (A) (A) (A)
                 (A) (A) (A) (A) (A) (A) (A) (A) (A) (A) (A) (A)
                 (A)
       Virtual   (A) (A) (A) (A) (A) (A) (A) (A) (A) (A) (A) (A)
                 (A) (A) (A) (A) (A) (A) (A) (A) (A) (A) (A) (A)
                 (A) (A) (A) (A) (A) (A) (A) (A) (A) (A) (A) (A)
                 (A) (A) (A) (A) (A) (A) (A) (A) (A) (A) (A) (A)
                 (A) (A) (A) (A) (A) (A) (A) (A) (A) (A) (A) (A)
                 (A) (A) (A) (A) (A) (A) (A) (A) (A) (A) (A) (A)
                 (A) (A) (A) (A) (A) (A) (A) (A) (A) (A) (A) (A)
                 (A) (A) (A) (A) (A) (A) (A) (A) (A) (A) (A) (A)
                 (A) (A) (A) (A) (A) (A) (A) (A) (A) (A) (A) (A)
                 (A) (A) (A) (A) (A) (A) (A) (A) (A) (A) (A) (A)
                 (A) (A) (A) (A) (A) (A) (A) (A) (A) (A) (A) (A)
                 (A) (A) (A) (A) (A) (A) (A) (A) (A) (A) (A) (A)
                 (A) (A) (A) (A) (A) (A) (A) (A) (A) (A) (A) (A)
                 (A) (A) (A) (A) (A) (A) (A) (A) (A) (A) (A) (A)
                 (A) (A) (A) (A) (A) (A) (A) (A) (A) (A) (A) (A)
                 (A) (A) (A) (A) (A) (A) (A) (A) (A) (A) (A) (A)
                 (A) (A) (A) (A) (A) (A) (A) (A) (A) (A) (A) (A)
                 (A) (A) (A) (A) (A) (A) (A) (A) (A) (A) (A) (A)
                 (A) (A) (A) (A) (A) (A) (A) (A) (A) (A) (A) (A)
                 (A) (A) (A) (A) (A) (A) (A) (A) (A) (A) (A) (A)
                 (A) (A) (A) (A) (A) (A) (A) (A) (A) (A) (A) (A)
                 (A) (A) (A) (A) (A) (A) (A) (A) (A) (A) (A) (A)
                 (A) (A) (A) (A) (A) (A) (A) (A) (A) (A) (A) (A)
                 (A) (A)
 The electronic state is 2-A.
 Alpha  occ. eigenvalues --  -19.69006 -19.68780 -10.55288 -10.54569 -10.54184
 Alpha  occ. eigenvalues --  -10.53002  -1.27346  -0.98998  -0.91349  -0.83546
 Alpha  occ. eigenvalues --   -0.73270  -0.68131  -0.62333  -0.58425  -0.55477
 Alpha  occ. eigenvalues --   -0.52906  -0.50985  -0.50719  -0.48123  -0.44451
 Alpha  occ. eigenvalues --   -0.41992  -0.40926  -0.40101  -0.39274  -0.37770
 Alpha  occ. eigenvalues --   -0.29910
 Alpha virt. eigenvalues --    0.01071   0.02191   0.02894   0.03731   0.05273
 Alpha virt. eigenvalues --    0.06059   0.06267   0.07064   0.07465   0.08902
 Alpha virt. eigenvalues --    0.09906   0.10744   0.10806   0.13532   0.15044
 Alpha virt. eigenvalues --    0.15390   0.16696   0.17429   0.18873   0.19875
 Alpha virt. eigenvalues --    0.20430   0.20653   0.21141   0.21759   0.22149
 Alpha virt. eigenvalues --    0.23209   0.24334   0.25841   0.26649   0.27188
 Alpha virt. eigenvalues --    0.28103   0.28782   0.29063   0.29725   0.30160
 Alpha virt. eigenvalues --    0.32393   0.33992   0.36377   0.38424   0.41148
 Alpha virt. eigenvalues --    0.41679   0.42781   0.44928   0.46675   0.48160
 Alpha virt. eigenvalues --    0.48620   0.50962   0.52679   0.54388   0.55638
 Alpha virt. eigenvalues --    0.56042   0.57798   0.58944   0.59215   0.60461
 Alpha virt. eigenvalues --    0.62156   0.63570   0.64014   0.64299   0.64793
 Alpha virt. eigenvalues --    0.67355   0.68205   0.69739   0.70664   0.75917
 Alpha virt. eigenvalues --    0.76597   0.77698   0.79276   0.80768   0.83062
 Alpha virt. eigenvalues --    0.85722   0.85747   0.87838   0.91242   0.93225
 Alpha virt. eigenvalues --    0.94864   0.96704   0.97861   1.02155   1.02576
 Alpha virt. eigenvalues --    1.05110   1.08241   1.09689   1.11769   1.12239
 Alpha virt. eigenvalues --    1.13530   1.15326   1.15648   1.16599   1.17099
 Alpha virt. eigenvalues --    1.18281   1.19229   1.20579   1.21772   1.21965
 Alpha virt. eigenvalues --    1.22993   1.24487   1.25778   1.26783   1.29721
 Alpha virt. eigenvalues --    1.31032   1.32405   1.35130   1.39300   1.39788
 Alpha virt. eigenvalues --    1.40807   1.42938   1.44259   1.45080   1.46244
 Alpha virt. eigenvalues --    1.46902   1.48997   1.52394   1.52558   1.55970
 Alpha virt. eigenvalues --    1.56792   1.57838   1.59748   1.60347   1.61036
 Alpha virt. eigenvalues --    1.61822   1.63751   1.65816   1.67061   1.68542
 Alpha virt. eigenvalues --    1.70590   1.76423   1.78331   1.81979   1.86448
 Alpha virt. eigenvalues --    1.99462   2.02711   2.23360   2.27464   2.28810
 Alpha virt. eigenvalues --    2.38664   2.42104   2.44625   2.47487   2.51216
 Alpha virt. eigenvalues --    2.56227   2.57286   2.59027   2.67892   2.67991
 Alpha virt. eigenvalues --    2.70203   2.73578   2.75613   2.79953   2.81352
 Alpha virt. eigenvalues --    2.83428   2.86093   2.87683   2.91037   2.92919
 Alpha virt. eigenvalues --    2.94415   2.98144   3.00715   3.04780   3.06550
 Alpha virt. eigenvalues --    3.09436   3.13178   3.15300   3.16760   3.17939
 Alpha virt. eigenvalues --    3.22180   3.23855   3.27748   3.29338   3.32513
 Alpha virt. eigenvalues --    3.34318   3.35443   3.37366   3.38551   3.43711
 Alpha virt. eigenvalues --    3.44927   3.49260   3.50902   3.52281   3.54747
 Alpha virt. eigenvalues --    3.57183   3.59662   3.61196   3.65010   3.66997
 Alpha virt. eigenvalues --    3.68388   3.69811   3.71112   3.73178   3.73783
 Alpha virt. eigenvalues --    3.79665   3.82825   3.84925   3.87737   3.90548
 Alpha virt. eigenvalues --    3.91062   3.96750   3.97758   3.99971   4.00538
 Alpha virt. eigenvalues --    4.01717   4.04918   4.07542   4.10777   4.12992
 Alpha virt. eigenvalues --    4.14578   4.15087   4.16943   4.19984   4.21752
 Alpha virt. eigenvalues --    4.22829   4.23590   4.26770   4.28511   4.30415
 Alpha virt. eigenvalues --    4.34417   4.38508   4.40905   4.44932   4.45793
 Alpha virt. eigenvalues --    4.48251   4.49580   4.53222   4.55986   4.58215
 Alpha virt. eigenvalues --    4.61109   4.62607   4.63534   4.66444   4.70215
 Alpha virt. eigenvalues --    4.70876   4.74352   4.75146   4.80523   4.82992
 Alpha virt. eigenvalues --    4.91342   5.04119   5.13100   5.14622   5.18084
 Alpha virt. eigenvalues --    5.19783   5.23135   5.24660   5.34049   5.36021
 Alpha virt. eigenvalues --    5.39791   5.40420   5.44991   5.49283   5.54769
 Alpha virt. eigenvalues --    5.57449   5.58819   5.62647   5.64897   5.65952
 Alpha virt. eigenvalues --    5.67581   6.09233   6.12363   6.36796   6.83836
 Alpha virt. eigenvalues --    6.85136   6.89602   6.91198   6.99687   7.12029
 Alpha virt. eigenvalues --    7.27143   7.29663   7.47813   7.49725   7.81264
 Alpha virt. eigenvalues --    7.92220  24.23395  24.33326  24.41306  24.48435
 Alpha virt. eigenvalues --   49.99122  50.04116
  Beta  occ. eigenvalues --  -19.68850 -19.67816 -10.54810 -10.54592 -10.54173
  Beta  occ. eigenvalues --  -10.53003  -1.25644  -0.96523  -0.90861  -0.82641
  Beta  occ. eigenvalues --   -0.72259  -0.67432  -0.61075  -0.55418  -0.54503
  Beta  occ. eigenvalues --   -0.51553  -0.50416  -0.49510  -0.47264  -0.43958
  Beta  occ. eigenvalues --   -0.41379  -0.40491  -0.39794  -0.36379  -0.35768
  Beta virt. eigenvalues --   -0.08196   0.01089   0.02177   0.02917   0.03755
  Beta virt. eigenvalues --    0.05284   0.06124   0.06385   0.07020   0.07576
  Beta virt. eigenvalues --    0.08949   0.09972   0.10768   0.10898   0.13706
  Beta virt. eigenvalues --    0.15104   0.15477   0.16741   0.17483   0.19133
  Beta virt. eigenvalues --    0.19967   0.20491   0.20933   0.21496   0.21873
  Beta virt. eigenvalues --    0.22383   0.23368   0.24526   0.26027   0.26904
  Beta virt. eigenvalues --    0.27402   0.28371   0.28972   0.29240   0.30021
  Beta virt. eigenvalues --    0.30404   0.32557   0.35951   0.36747   0.38741
  Beta virt. eigenvalues --    0.41370   0.41853   0.42957   0.45144   0.46781
  Beta virt. eigenvalues --    0.48469   0.48843   0.51244   0.52999   0.54569
  Beta virt. eigenvalues --    0.55748   0.56496   0.58018   0.59222   0.59721
  Beta virt. eigenvalues --    0.60655   0.62561   0.63870   0.64526   0.65037
  Beta virt. eigenvalues --    0.65202   0.67629   0.68358   0.69818   0.70738
  Beta virt. eigenvalues --    0.75958   0.76646   0.77787   0.79345   0.80846
  Beta virt. eigenvalues --    0.83167   0.85844   0.85936   0.87909   0.91450
  Beta virt. eigenvalues --    0.93390   0.95096   0.96970   0.97976   1.02446
  Beta virt. eigenvalues --    1.03220   1.05521   1.08299   1.09676   1.11906
  Beta virt. eigenvalues --    1.12418   1.13805   1.15395   1.15820   1.16778
  Beta virt. eigenvalues --    1.17427   1.18459   1.19651   1.20705   1.21792
  Beta virt. eigenvalues --    1.22224   1.23206   1.24937   1.26168   1.27037
  Beta virt. eigenvalues --    1.29878   1.31245   1.32953   1.35689   1.39586
  Beta virt. eigenvalues --    1.39984   1.41086   1.43090   1.44447   1.45361
  Beta virt. eigenvalues --    1.46474   1.46959   1.49612   1.52626   1.52936
  Beta virt. eigenvalues --    1.56247   1.57167   1.58322   1.60218   1.60549
  Beta virt. eigenvalues --    1.61382   1.62397   1.63835   1.66017   1.67474
  Beta virt. eigenvalues --    1.68838   1.70980   1.76667   1.78636   1.82467
  Beta virt. eigenvalues --    1.88291   2.00034   2.03594   2.23450   2.28052
  Beta virt. eigenvalues --    2.28841   2.38923   2.43399   2.44883   2.47756
  Beta virt. eigenvalues --    2.51009   2.56487   2.57364   2.59710   2.67309
  Beta virt. eigenvalues --    2.68414   2.70534   2.74168   2.76201   2.80291
  Beta virt. eigenvalues --    2.81849   2.84958   2.86410   2.87372   2.92062
  Beta virt. eigenvalues --    2.93190   2.94716   2.98215   3.02067   3.05328
  Beta virt. eigenvalues --    3.07339   3.10858   3.14953   3.15551   3.17709
  Beta virt. eigenvalues --    3.18675   3.23039   3.24928   3.29134   3.30321
  Beta virt. eigenvalues --    3.33355   3.34628   3.35671   3.37570   3.38949
  Beta virt. eigenvalues --    3.46305   3.47513   3.51111   3.52600   3.55039
  Beta virt. eigenvalues --    3.55665   3.57772   3.61670   3.62285   3.66523
  Beta virt. eigenvalues --    3.67761   3.69043   3.70208   3.71449   3.73612
  Beta virt. eigenvalues --    3.74845   3.80690   3.83019   3.85533   3.88267
  Beta virt. eigenvalues --    3.90922   3.92299   3.97878   3.98030   4.00514
  Beta virt. eigenvalues --    4.01256   4.01978   4.05288   4.08212   4.11512
  Beta virt. eigenvalues --    4.13529   4.15379   4.15785   4.17663   4.20516
  Beta virt. eigenvalues --    4.22485   4.23510   4.23943   4.26939   4.29994
  Beta virt. eigenvalues --    4.31081   4.34620   4.39650   4.41231   4.45598
  Beta virt. eigenvalues --    4.46460   4.49069   4.50133   4.53410   4.56369
  Beta virt. eigenvalues --    4.58999   4.61416   4.62773   4.63658   4.66723
  Beta virt. eigenvalues --    4.70825   4.72308   4.75017   4.75818   4.81188
  Beta virt. eigenvalues --    4.84301   4.91621   5.05281   5.13810   5.15200
  Beta virt. eigenvalues --    5.18559   5.20234   5.23773   5.25423   5.34780
  Beta virt. eigenvalues --    5.36651   5.39988   5.41864   5.46182   5.51033
  Beta virt. eigenvalues --    5.55206   5.58829   5.59878   5.62783   5.65058
  Beta virt. eigenvalues --    5.65954   5.67621   6.10157   6.12686   6.37798
  Beta virt. eigenvalues --    6.84365   6.86807   6.89842   6.92978   7.03368
  Beta virt. eigenvalues --    7.12330   7.27597   7.32416   7.48015   7.51512
  Beta virt. eigenvalues --    7.83613   7.92524  24.23878  24.33675  24.41478
  Beta virt. eigenvalues --   24.48610  49.98790  50.03713
          Condensed to atoms (all electrons):
              1          2          3          4          5          6
     1  O    8.161767   0.140256  -0.068971   0.010090   0.043276  -0.022628
     2  O    0.140256   7.857907   0.007514   0.016290  -0.012305   0.019826
     3  C   -0.068971   0.007514   5.851450  -0.143315  -0.187008   0.225024
     4  C    0.010090   0.016290  -0.143315   5.581301   0.110070  -0.150368
     5  C    0.043276  -0.012305  -0.187008   0.110070   5.629105  -0.165191
     6  C   -0.022628   0.019826   0.225024  -0.150368  -0.165191   5.679220
     7  H   -0.059879   0.228378   0.018456  -0.003973  -0.027016   0.017796
     8  H    0.048593  -0.043742   0.268960  -0.007285  -0.005311  -0.038074
     9  H    0.000663  -0.002277   0.364208   0.006910   0.001750  -0.020325
    10  H    0.004975   0.002029   0.381952   0.003641  -0.010683   0.007948
    11  H   -0.000002   0.000057   0.000236   0.412846   0.022961  -0.051806
    12  H   -0.000033  -0.000005   0.000646   0.404193  -0.026475  -0.006445
    13  H   -0.000035   0.000019   0.001935   0.396253  -0.018572  -0.006887
    14  H   -0.001579   0.000310  -0.051111   0.007463   0.454107  -0.064358
    15  H   -0.002094  -0.000092  -0.040793  -0.007084   0.453244  -0.043751
    16  H   -0.001729   0.000350  -0.002557  -0.023322  -0.055136   0.433878
    17  H    0.008216  -0.006565  -0.011161  -0.043691  -0.043811   0.443247
              7          8          9         10         11         12
     1  O   -0.059879   0.048593   0.000663   0.004975  -0.000002  -0.000033
     2  O    0.228378  -0.043742  -0.002277   0.002029   0.000057  -0.000005
     3  C    0.018456   0.268960   0.364208   0.381952   0.000236   0.000646
     4  C   -0.003973  -0.007285   0.006910   0.003641   0.412846   0.404193
     5  C   -0.027016  -0.005311   0.001750  -0.010683   0.022961  -0.026475
     6  C    0.017796  -0.038074  -0.020325   0.007948  -0.051806  -0.006445
     7  H    0.566991   0.003762  -0.000028  -0.000326  -0.000073   0.000035
     8  H    0.003762   0.455885  -0.014042  -0.023497  -0.000018  -0.000007
     9  H   -0.000028  -0.014042   0.478454  -0.011234   0.000005   0.000000
    10  H   -0.000326  -0.023497  -0.011234   0.483415   0.000010  -0.000020
    11  H   -0.000073  -0.000018   0.000005   0.000010   0.538345  -0.024677
    12  H    0.000035  -0.000007   0.000000  -0.000020  -0.024677   0.548658
    13  H    0.000009  -0.000041  -0.000021  -0.000001  -0.024481  -0.037179
    14  H   -0.000076   0.005738  -0.005542  -0.003417  -0.000052   0.002735
    15  H    0.000333  -0.004444   0.004656  -0.004064  -0.000102  -0.000090
    16  H   -0.000917  -0.000841   0.001191   0.000053  -0.004689  -0.008368
    17  H    0.002247   0.003733   0.000543  -0.000184  -0.004924   0.006428
             13         14         15         16         17
     1  O   -0.000035  -0.001579  -0.002094  -0.001729   0.008216
     2  O    0.000019   0.000310  -0.000092   0.000350  -0.006565
     3  C    0.001935  -0.051111  -0.040793  -0.002557  -0.011161
     4  C    0.396253   0.007463  -0.007084  -0.023322  -0.043691
     5  C   -0.018572   0.454107   0.453244  -0.055136  -0.043811
     6  C   -0.006887  -0.064358  -0.043751   0.433878   0.443247
     7  H    0.000009  -0.000076   0.000333  -0.000917   0.002247
     8  H   -0.000041   0.005738  -0.004444  -0.000841   0.003733
     9  H   -0.000021  -0.005542   0.004656   0.001191   0.000543
    10  H   -0.000001  -0.003417  -0.004064   0.000053  -0.000184
    11  H   -0.024481  -0.000052  -0.000102  -0.004689  -0.004924
    12  H   -0.037179   0.002735  -0.000090  -0.008368   0.006428
    13  H    0.550431  -0.001360   0.002164   0.006708  -0.008248
    14  H   -0.001360   0.536761  -0.037210  -0.007394   0.006221
    15  H    0.002164  -0.037210   0.507045   0.005876  -0.006888
    16  H    0.006708  -0.007394   0.005876   0.521707  -0.042504
    17  H   -0.008248   0.006221  -0.006888  -0.042504   0.518351
 Mulliken atomic charges:
              1
     1  O   -0.260888
     2  O   -0.207949
     3  C   -0.615465
     4  C   -0.570018
     5  C   -0.163003
     6  C   -0.257104
     7  H    0.254280
     8  H    0.350632
     9  H    0.195089
    10  H    0.169404
    11  H    0.136365
    12  H    0.140604
    13  H    0.139306
    14  H    0.158765
    15  H    0.173296
    16  H    0.177695
    17  H    0.178990
 Sum of Mulliken atomic charges =   0.00000
 Mulliken charges with hydrogens summed into heavy atoms:
              1
     1  O    0.089744
     2  O    0.046331
     3  C   -0.250972
     4  C   -0.153743
     5  C    0.169058
     6  C    0.099581
 Sum of Mulliken charges with hydrogens summed into heavy atoms =   0.00000
          Atomic-Atomic Spin Densities.
              1          2          3          4          5          6
     1  O    0.597293  -0.078861  -0.130319  -0.009930   0.025526  -0.003068
     2  O   -0.078861   0.091072   0.037931   0.002730  -0.007470   0.001764
     3  C   -0.130319   0.037931   0.700929   0.006010  -0.061088  -0.004511
     4  C   -0.009930   0.002730   0.006010   0.002255  -0.008511  -0.001231
     5  C    0.025526  -0.007470  -0.061088  -0.008511  -0.011341   0.014751
     6  C   -0.003068   0.001764  -0.004511  -0.001231   0.014751   0.013154
     7  H    0.005646  -0.002580  -0.002980  -0.000040   0.001658  -0.000970
     8  H   -0.052180   0.031567   0.111330   0.008735  -0.030856   0.011873
     9  H    0.012829  -0.007699  -0.019760  -0.002436   0.011607   0.000170
    10  H    0.003760  -0.001374  -0.013346  -0.000465   0.009500  -0.000012
    11  H    0.000011  -0.000011   0.000012  -0.000783   0.000033   0.000517
    12  H    0.000009  -0.000001  -0.000480   0.000351   0.000843  -0.000289
    13  H    0.000017  -0.000003  -0.000107   0.000469   0.000176  -0.000502
    14  H   -0.002555   0.001011  -0.011395   0.008229   0.003715  -0.008615
    15  H    0.002131  -0.000509  -0.007156  -0.002997   0.006758   0.003595
    16  H    0.001316  -0.001031  -0.002086  -0.000883   0.002414  -0.000163
    17  H   -0.002511   0.001032   0.001716   0.002094  -0.001405  -0.000644
              7          8          9         10         11         12
     1  O    0.005646  -0.052180   0.012829   0.003760   0.000011   0.000009
     2  O   -0.002580   0.031567  -0.007699  -0.001374  -0.000011  -0.000001
     3  C   -0.002980   0.111330  -0.019760  -0.013346   0.000012  -0.000480
     4  C   -0.000040   0.008735  -0.002436  -0.000465  -0.000783   0.000351
     5  C    0.001658  -0.030856   0.011607   0.009500   0.000033   0.000843
     6  C   -0.000970   0.011873   0.000170  -0.000012   0.000517  -0.000289
     7  H   -0.002967  -0.001510   0.000247   0.000059   0.000003  -0.000002
     8  H   -0.001510  -0.077064  -0.004741   0.000086   0.000001  -0.000001
     9  H    0.000247  -0.004741  -0.023286   0.006107   0.000002   0.000000
    10  H    0.000059   0.000086   0.006107  -0.027712   0.000000   0.000001
    11  H    0.000003   0.000001   0.000002   0.000000  -0.000168   0.000103
    12  H   -0.000002  -0.000001   0.000000   0.000001   0.000103  -0.001397
    13  H   -0.000002  -0.000013   0.000003   0.000002   0.000040   0.000088
    14  H   -0.000054   0.001621  -0.002580  -0.001944  -0.000014  -0.000077
    15  H    0.000014  -0.000660   0.000165   0.000924   0.000009  -0.000018
    16  H   -0.000069  -0.000632   0.000200   0.000079   0.000065  -0.000006
    17  H   -0.000174   0.000478  -0.000192  -0.000033  -0.000028  -0.000010
             13         14         15         16         17
     1  O    0.000017  -0.002555   0.002131   0.001316  -0.002511
     2  O   -0.000003   0.001011  -0.000509  -0.001031   0.001032
     3  C   -0.000107  -0.011395  -0.007156  -0.002086   0.001716
     4  C    0.000469   0.008229  -0.002997  -0.000883   0.002094
     5  C    0.000176   0.003715   0.006758   0.002414  -0.001405
     6  C   -0.000502  -0.008615   0.003595  -0.000163  -0.000644
     7  H   -0.000002  -0.000054   0.000014  -0.000069  -0.000174
     8  H   -0.000013   0.001621  -0.000660  -0.000632   0.000478
     9  H    0.000003  -0.002580   0.000165   0.000200  -0.000192
    10  H    0.000002  -0.001944   0.000924   0.000079  -0.000033
    11  H    0.000040  -0.000014   0.000009   0.000065  -0.000028
    12  H    0.000088  -0.000077  -0.000018  -0.000006  -0.000010
    13  H   -0.000273  -0.000093   0.000083  -0.000008  -0.000061
    14  H   -0.000093   0.051822  -0.004845  -0.001085   0.000362
    15  H    0.000083  -0.004845   0.008550   0.000166  -0.000431
    16  H   -0.000008  -0.001085   0.000166  -0.001206  -0.000948
    17  H   -0.000061   0.000362  -0.000431  -0.000948  -0.001056
 Mulliken atomic spin densities:
              1
     1  O    0.369114
     2  O    0.067568
     3  C    0.604702
     4  C    0.003596
     5  C   -0.043689
     6  C    0.025817
     7  H   -0.003722
     8  H   -0.001967
     9  H   -0.029367
    10  H   -0.024368
    11  H   -0.000209
    12  H   -0.000887
    13  H   -0.000182
    14  H    0.033504
    15  H    0.005780
    16  H   -0.003878
    17  H   -0.001812
 Sum of Mulliken atomic spin densities =   1.00000
 APT atomic charges:
              1
     1  O   -0.199331
     2  O   -0.291476
     3  C   -0.993393
     4  C   -1.469143
     5  C   -0.849566
     6  C   -0.407170
     7  H    0.321542
     8  H    0.303761
     9  H    0.329716
    10  H    0.539359
    11  H    0.456278
    12  H    0.447499
    13  H    0.385235
    14  H    0.464590
    15  H    0.397515
    16  H    0.315340
    17  H    0.249244
 Sum of APT charges=   0.00000
 APT Atomic charges with hydrogens summed into heavy atoms:
              1
     1  O    0.104430
     2  O    0.030066
     3  C   -0.124319
     4  C   -0.180131
     5  C    0.012539
     6  C    0.157414
     7  H    0.000000
     8  H    0.000000
     9  H    0.000000
    10  H    0.000000
    11  H    0.000000
    12  H    0.000000
    13  H    0.000000
    14  H    0.000000
    15  H    0.000000
    16  H    0.000000
    17  H    0.000000
 Sum of APT charges=   0.00000
 Electronic spatial extent (au):  <R**2>=            908.2630
 Charge=              0.0000 electrons
 Dipole moment (field-independent basis, Debye):
    X=             -2.6701    Y=              0.1550    Z=             -0.6606  Tot=              2.7550
 Quadrupole moment (field-independent basis, Debye-Ang):
   XX=            -47.6200   YY=            -35.5376   ZZ=            -40.3486
   XY=              0.9571   XZ=             -0.8680   YZ=              0.8269
 Traceless Quadrupole moment (field-independent basis, Debye-Ang):
   XX=             -6.4513   YY=              5.6311   ZZ=              0.8202
   XY=              0.9571   XZ=             -0.8680   YZ=              0.8269
 Octapole moment (field-independent basis, Debye-Ang**2):
  XXX=             -4.7415  YYY=             -9.3339  ZZZ=              0.1980  XYY=              8.9719
  XXY=              3.2981  XXZ=             -1.2837  XZZ=              2.3180  YZZ=             -0.8792
  YYZ=             -0.3999  XYZ=              0.5763
 Hexadecapole moment (field-independent basis, Debye-Ang**3):
 XXXX=           -848.1573 YYYY=           -275.2525 ZZZZ=            -95.8535 XXXY=             -0.4841
 XXXZ=              3.8465 YYYX=            -12.0695 YYYZ=              7.7845 ZZZX=             -2.2135
 ZZZY=              3.1389 XXYY=           -178.6020 XXZZ=           -150.6315 YYZZ=            -65.4382
 XXYZ=             -1.9225 YYXZ=              0.8461 ZZXY=             -3.9072
 N-N= 2.521149353471D+02 E-N=-1.832693529265D+03  KE= 4.609878484366D+02
  Exact polarizability:   0.000   0.000   0.000   0.000   0.000   0.000
 Approx polarizability:  80.315 -10.987  83.832   2.595  -0.049  72.350
                          Isotropic Fermi Contact Couplings
        Atom                 a.u.       MegaHertz       Gauss      10(-4) cm-1
     1  O(17)              0.09871     -59.83473     -21.35052     -19.95872
     2  O(17)              0.00871      -5.28298      -1.88510      -1.76221
     3  C(13)              0.14969     168.28484      60.04821      56.13378
     4  C(13)             -0.00113      -1.27495      -0.45494      -0.42528
     5  C(13)             -0.01571     -17.66593      -6.30364      -5.89272
     6  C(13)              0.00805       9.04989       3.22923       3.01872
     7  H(1)              -0.00128      -5.74246      -2.04905      -1.91548
     8  H(1)              -0.02975    -132.96823     -47.44637     -44.35343
     9  H(1)              -0.00598     -26.73152      -9.53847      -8.91668
    10  H(1)              -0.00561     -25.07298      -8.94666      -8.36345
    11  H(1)              -0.00008      -0.35782      -0.12768      -0.11936
    12  H(1)               0.00001       0.04803       0.01714       0.01602
    13  H(1)              -0.00001      -0.04305      -0.01536      -0.01436
    14  H(1)               0.01926      86.09341      30.72027      28.71767
    15  H(1)               0.00283      12.62915       4.50640       4.21263
    16  H(1)              -0.00014      -0.63569      -0.22683      -0.21204
    17  H(1)              -0.00017      -0.74754      -0.26674      -0.24935
 --------------------------------------------------------
       Center         ----  Spin Dipole Couplings  ----
                      3XX-RR        3YY-RR        3ZZ-RR
 --------------------------------------------------------
     1   Atom        0.041858      0.285721     -0.327579
     2   Atom        0.039990      0.136513     -0.176502
     3   Atom       -0.014731      0.035466     -0.020735
     4   Atom        0.002160     -0.000285     -0.001876
     5   Atom        0.021274     -0.010775     -0.010499
     6   Atom        0.000849      0.009380     -0.010229
     7   Atom       -0.001081      0.011777     -0.010695
     8   Atom        0.005234      0.067118     -0.072352
     9   Atom       -0.021592     -0.020866      0.042458
    10   Atom       -0.023154      0.043261     -0.020106
    11   Atom        0.001128      0.000211     -0.001339
    12   Atom        0.002160     -0.000407     -0.001753
    13   Atom        0.001934     -0.000681     -0.001253
    14   Atom        0.010111     -0.004763     -0.005348
    15   Atom        0.006327     -0.006418      0.000091
    16   Atom        0.001046      0.001478     -0.002524
    17   Atom        0.003984      0.002350     -0.006333
 --------------------------------------------------------
                        XY            XZ            YZ
 --------------------------------------------------------
     1   Atom       -1.159159      0.827398     -0.928092
     2   Atom       -0.233864      0.110116     -0.147301
     3   Atom       -0.356084      0.327926     -0.348408
     4   Atom        0.001751      0.000651     -0.000352
     5   Atom       -0.008016      0.010176     -0.005280
     6   Atom        0.009431      0.001102      0.001455
     7   Atom        0.008613      0.005251      0.008659
     8   Atom       -0.155395      0.078928     -0.090303
     9   Atom       -0.022963     -0.015130      0.007418
    10   Atom        0.011468      0.022349      0.015864
    11   Atom        0.001567      0.000146     -0.000048
    12   Atom        0.001670      0.000547      0.000037
    13   Atom        0.001424     -0.001044     -0.000724
    14   Atom       -0.002222      0.002594     -0.003140
    15   Atom       -0.001396     -0.009084     -0.000486
    16   Atom        0.004005      0.003812      0.003615
    17   Atom        0.006024     -0.000814     -0.002410
 --------------------------------------------------------


 ---------------------------------------------------------------------------------
              Anisotropic Spin Dipole Couplings in Principal Axis System
 ---------------------------------------------------------------------------------

       Atom             a.u.   MegaHertz   Gauss  10(-4) cm-1        Axes

              Baa    -1.0043    72.674    25.932    24.241  0.5334  0.7544  0.3825
     1 O(17)  Bbb    -0.9906    71.680    25.577    23.910 -0.6069  0.0264  0.7943
              Bcc     1.9950  -144.354   -51.509   -48.151 -0.5892  0.6558 -0.4720
 
              Baa    -0.2370    17.152     6.120     5.721 -0.1298  0.2923  0.9475
     2 O(17)  Bbb    -0.1499    10.849     3.871     3.619  0.7916  0.6059 -0.0785
              Bcc     0.3870   -28.001    -9.992    -9.340 -0.5971  0.7398 -0.3101
 
              Baa    -0.3475   -46.625   -16.637   -15.552  0.8222  0.4615 -0.3332
     3 C(13)  Bbb    -0.3421   -45.913   -16.383   -15.315 -0.0559  0.6480  0.7595
              Bcc     0.6896    92.538    33.020    30.867 -0.5664  0.6059 -0.5587
 
              Baa    -0.0023    -0.303    -0.108    -0.101 -0.2899  0.4109  0.8644
     4 C(13)  Bbb    -0.0008    -0.114    -0.041    -0.038 -0.3544  0.7929 -0.4957
              Bcc     0.0031     0.417     0.149     0.139  0.8890  0.4501  0.0843
 
              Baa    -0.0160    -2.148    -0.766    -0.716 -0.0624  0.6602  0.7485
     5 C(13)  Bbb    -0.0105    -1.412    -0.504    -0.471  0.3705  0.7117 -0.5969
              Bcc     0.0265     3.559     1.270     1.187  0.9268 -0.2401  0.2890
 
              Baa    -0.0104    -1.390    -0.496    -0.464 -0.0606 -0.0446  0.9972
     6 C(13)  Bbb    -0.0052    -0.702    -0.251    -0.234  0.8387 -0.5440  0.0266
              Bcc     0.0156     2.093     0.747     0.698  0.5412  0.8379  0.0703
 
              Baa    -0.0141    -7.545    -2.692    -2.517 -0.2199 -0.2426  0.9449
     7 H(1)   Bbb    -0.0053    -2.847    -1.016    -0.950  0.8735 -0.4802  0.0800
              Bcc     0.0195    10.391     3.708     3.466  0.4343  0.8430  0.3175
 
              Baa    -0.1243   -66.319   -23.664   -22.122  0.7807  0.4123 -0.4695
     8 H(1)   Bbb    -0.1163   -62.028   -22.133   -20.690  0.1903  0.5588  0.8072
              Bcc     0.2406   128.347    45.798    42.812 -0.5952  0.7196 -0.3578
 
              Baa    -0.0446   -23.784    -8.487    -7.933  0.7272  0.6830  0.0682
     9 H(1)   Bbb    -0.0037    -1.951    -0.696    -0.651 -0.6322  0.7052 -0.3209
              Bcc     0.0482    25.734     9.183     8.584 -0.2673  0.1902  0.9447
 
              Baa    -0.0441   -23.534    -8.397    -7.850  0.7212  0.0310 -0.6920
    10 H(1)   Bbb    -0.0067    -3.600    -1.285    -1.201  0.6537 -0.3609  0.6651
              Bcc     0.0509    27.134     9.682     9.051  0.2291  0.9321  0.2805
 
              Baa    -0.0014    -0.736    -0.263    -0.245 -0.1923  0.2187  0.9567
    11 H(1)   Bbb    -0.0009    -0.493    -0.176    -0.165 -0.5675  0.7706 -0.2902
              Bcc     0.0023     1.229     0.439     0.410  0.8006  0.5987  0.0241
 
              Baa    -0.0019    -0.999    -0.357    -0.333 -0.2242  0.2314  0.9467
    12 H(1)   Bbb    -0.0012    -0.621    -0.221    -0.207 -0.3873  0.8702 -0.3044
              Bcc     0.0030     1.620     0.578     0.540  0.8943  0.4349  0.1055
 
              Baa    -0.0017    -0.933    -0.333    -0.311  0.0368  0.5269  0.8491
    13 H(1)   Bbb    -0.0012    -0.632    -0.226    -0.211 -0.4908  0.7497 -0.4439
              Bcc     0.0029     1.565     0.558     0.522  0.8705  0.4004 -0.2863
 
              Baa    -0.0082    -4.385    -1.565    -1.463 -0.0255  0.6632  0.7480
    14 H(1)   Bbb    -0.0028    -1.489    -0.531    -0.497  0.2534  0.7281 -0.6369
              Bcc     0.0110     5.874     2.096     1.959  0.9670 -0.1734  0.1866
 
[...]
 ! D31   D(15,5,6,16)         -175.3108         -DE/DX =    0.0                 !
 ! D32   D(15,5,6,17)          -59.0257         -DE/DX =    0.0                 !
 --------------------------------------------------------------------------------
 GradGradGradGradGradGradGradGradGradGradGradGradGradGradGradGradGradGrad

 Leave Link  103 at Wed May  9 01:44:25 2018, MaxMem=  671088640 cpu:      45.5
 (Enter /shared/apps/gaussian/G09_LINUX_LINDA/g09/l9999.exe)
 1\1\GINC-COMPUTE-3-045\Freq\UM062X\6-311+G(2df,2p)\C4H11O2(2)\ROOT\09-
 May-2018\0\\#P Geom=AllCheck Guess=TCheck SCRF=Check GenChk UM062X/6-3
 11+G(2df,2p) Freq\\Gaussian input prepared by ASE\\0,2\O,2.551427162,0
 .1181762877,-0.7439988344\O,2.8595014674,0.6322569466,0.5039103875\C,0
 .7983687795,-1.5413814594,-0.0794185698\C,-1.9820898125,1.1597158321,0
 .0998013976\C,-0.5180654483,-0.8647857329,-0.3328798916\C,-0.593708630
 9,0.5491190476,0.2407844871\H,2.2712232806,1.393257057,0.584999848\H,1
 .7532316862,-0.7203718598,-0.515960511\H,1.1030872926,-1.5970522069,0.
 9645818748\H,0.9886215308,-2.4588657387,-0.628853406\H,-2.0172773006,2
 .1728727849,0.4979764898\H,-2.7235495291,0.5633158587,0.6328829694\H,-
 2.281243226,1.2010467318,-0.9484795996\H,-1.3174177347,-1.4709608185,0
 .1142695224\H,-0.7275376896,-0.8351188829,-1.4047885142\H,-0.301610644
 5,0.5243629477,1.2946071066\H,0.1370388171,1.1744132046,-0.2792347568\
 \Version=EM64L-G09RevB.01\State=2-A\HF=-309.2802175\S2=0.76008\S2-1=0.
 \S2A=0.75005\RMSD=4.771e-09\RMSF=1.594e-05\ZeroPoint=0.1433879\Thermal
 =0.152114\Dipole=-1.0457702,0.0532322,0.2563489\DipoleDeriv=0.1896858,
 0.3979872,-0.028042,0.687448,0.3014533,0.0722455,0.6057434,0.5076553,-
 0.0862438,-0.3154148,-0.107928,0.0769347,-0.3957141,-0.4355099,-0.0476
 032,-0.5949364,-0.5118004,-0.2985783,0.726758,0.4453121,-0.0077522,0.4
 154611,0.3341225,0.0176247,-0.2211391,-0.1846917,0.0676172,0.0396924,0
 .0330197,-0.006997,0.0599792,0.0468327,-0.0118262,0.0164959,-0.010352,
 0.0857028,-0.1905866,-0.0506427,-0.0017394,-0.1417301,-0.0440401,-0.03
 03801,0.1219422,0.0477338,0.0866965,0.0829828,-0.018645,-0.0040079,-0.
 055603,0.0446275,-0.0039963,-0.0683856,-0.0260682,0.105779,0.2649935,0
 .0566205,-0.0214078,0.1538805,0.2733702,-0.0022434,-0.0331092,-0.00964
 07,0.2133961,-0.5231184,-0.5462147,0.0121489,-0.72376,-0.4098532,0.025
 5515,0.1779022,0.1400182,0.0730178,-0.0625638,-0.0478332,-0.0075102,-0
 .0664437,-0.011434,-0.0144641,-0.0337699,0.0317109,-0.0583616,-0.04902
 23,-0.024902,-0.0052967,0.0244839,-0.0954418,-0.0589384,0.0702328,-0.0
 109625,0.0382686,0.0149449,0.0086091,-0.0070019,0.0617484,-0.1118155,-
 0.0628877,0.0102434,-0.0721882,0.0445984,-0.049821,-0.0199016,0.042262
 9,-0.0890402,-0.0085181,0.0654429,0.0617737,0.0513132,0.016373,0.01539
 31,0.0221909,-0.0166111,0.0010691,0.0600779,-0.0136321,-0.0751671,0.01
 905,-0.1151686,-0.1211299,-0.1043556,0.0375395,0.0364375,0.0361453,0.0
 207277,0.0254347,0.0273278,0.0389913,0.0416504,0.016668,-0.0344805,0.0
 551138,0.034076,0.0164052,-0.0588502,-0.0201044,-0.1077161,0.0031547,0
 .0125116,-0.066688,0.0270264,0.0154625,0.0119257,-0.0668729,-0.0057022
 ,-0.1175931,-0.0675988,-0.0724963,0.0386486,-0.0503567,-0.0295552,0.01
 60483,0.0624621,0.0267011,0.0132206\Polar=83.2811487,8.8063339,72.4489
 785,-0.0479864,2.6716845,56.4308475\PG=C01 [X(C4H11O2)]\NImag=1\\0.059
 87005,0.02524689,0.10193506,-0.00152277,0.07379846,0.32225366,-0.04654
 340,-0.00296438,-0.03251969,0.27205643,-0.01610821,-0.07772458,-0.1010
 6931,-0.23018223,0.41493859,-0.05070519,-0.05567928,-0.25171166,0.0726
 3289,0.12436895,0.28393760,-0.07810043,-0.08864436,-0.01099875,0.00085
 392,0.00977503,0.03055422,0.33416941,-0.06608153,-0.06871149,-0.005619
 86,0.00073245,0.00699810,0.02184489,-0.14404280,0.42645119,0.03607188,
 0.03972507,0.00748181,-0.00285931,-0.00727544,-0.01319591,0.09391802,0
 .11265751,0.52853585,-0.00042811,-0.00009183,-0.00042001,0.00002394,0.
 00023693,0.00040529,-0.00034222,-0.00115733,-0.00025613,0.49327456,-0.
 00122507,-0.00040109,-0.00118167,-0.00048583,0.00056999,0.00128600,-0.
 00134474,-0.00603992,-0.00292820,0.03179006,0.56753368,0.00026607,-0.0
 0058312,-0.00023914,-0.00025240,-0.00006067,0.00038943,-0.00044608,-0.
 00225531,-0.00131897,-0.00877691,0.00752698,0.57148279,0.00798647,0.00
 864027,0.00505436,-0.00061423,-0.00207160,-0.00588152,-0.17505180,0.07
 066242,-0.03337088,-0.00280964,0.03280516,0.01281655,0.50635125,0.0044
 3199,0.00543436,0.00539500,-0.00061861,-0.00274734,-0.00585632,0.06351
 829,-0.09547240,0.00293101,0.00480319,-0.01722791,-0.00521257,0.016765
 25,0.47625833,-0.00343651,-0.00505584,-0.00380486,0.00052159,0.0018297
 6,0.00434609,-0.03052763,0.00062339,-0.08410988,0.00128201,0.00340751,
 0.00153119,0.00798318,-0.02049339,0.57372951,0.00021218,0.00012434,0.0
 0032074,-0.00023384,-0.00032548,0.00010851,-0.00409873,0.03140243,0.01
 421799,-0.18445210,0.04101491,-0.01238334,-0.07526344,0.00040107,-0.00
 230123,0.52620560,0.00369867,0.00173472,0.00209795,0.00046831,-0.00134
 344,-0.00240849,0.00902872,-0.01497149,-0.00667593,0.04469787,-0.09693
 438,0.00500122,-0.00288298,-0.17355167,-0.03960335,0.03685827,0.491250
 94,0.00041022,0.00108868,0.00065693,-0.00028732,0.00032746,-0.00132853
 ,0.00470784,0.00454496,0.00169216,-0.01132429,0.00436470,-0.08127298,-
 0.00316364,-0.03890983,-0.09718907,-0.00351025,-0.03467103,0.58277025,
 0.00998256,-0.01346381,-0.00517113,-0.21675922,0.26159803,0.00868022,0
 .00367932,0.00106173,-0.00121764,0.00019158,0.00102711,-0.00011691,-0.
 00000093,-0.00086163,0.00002315,-0.00055571,-0.00143909,0.00093565,0.2
 0680827,-0.00007636,-0.00980331,-0.00921183,0.24035035,-0.31989642,-0.
 03475515,-0.00102582,-0.00147295,0.00066922,0.00000103,0.00026064,0.00
 021439,0.00024007,0.00030744,-0.00036145,0.00039377,-0.00005661,-0.000
 41862,-0.24303218,0.33101167,0.02077870,-0.04621386,-0.02721605,-0.018
 55180,0.00100619,-0.03309587,-0.00032987,0.00009185,0.00029403,0.00016
 269,0.00026003,-0.00044367,-0.00006675,-0.00001261,-0.00018181,-0.0005
 8677,-0.00088241,0.00127532,-0.00211584,0.04473783,0.06137314,0.037825
 06,0.05771319,0.03677658,-0.00758187,-0.02031511,-0.04661518,0.0514014
 7,0.05499961,-0.02885180,0.00032618,0.00082326,0.00016809,-0.02593938,
 -0.01367665,0.01076650,-0.00021526,-0.00347689,-0.00100695,-0.00235207
 ,0.00325039,0.00091725,-0.03665581,0.04594085,0.04122586,0.03425973,-0
 .00815777,-0.02183981,-0.04664715,0.07398527,0.03361429,-0.03023522,0.
 00020726,0.00037272,0.00035485,-0.00835862,-0.00405555,0.00421569,0.00
 134140,-0.00202531,-0.00174848,-0.00549789,-0.00026675,0.00019659,-0.0
 7403426,-0.02724791,0.00241961,-0.00085677,-0.04494626,-0.01807947,-0.
 01952497,0.00642941,-0.01653361,-0.01299506,-0.01665048,-0.00006975,-0
 .00025152,-0.00019954,0.00179619,0.00035477,-0.00126101,0.00010864,0.0
 0083332,0.00054366,-0.00051848,-0.00151014,-0.00098483,0.02275920,0.02
 741559,0.06562684,0.00521488,0.00634293,0.00402096,0.00076432,-0.00011
 580,-0.00417433,-0.05400948,0.01663503,-0.06920422,-0.00005418,0.00013
 773,0.00022390,-0.00573845,0.00197627,-0.02966326,0.00058076,-0.001396
 88,-0.00047645,-0.00037684,0.00011346,-0.00014935,-0.00869719,-0.01143
 596,0.01200538,0.06228656,0.00508832,0.00567505,0.00360196,0.00113008,
 -0.00005517,-0.00426148,0.02035649,-0.04140745,0.01198324,0.00012110,0
 .00002872,-0.00018649,0.00092486,0.00066081,0.01146851,-0.00082886,0.0
 0098369,0.00152950,-0.00052772,-0.00021833,0.00012150,-0.00855108,-0.0
 1040077,0.01175713,-0.01509634,0.04011484,-0.00167273,-0.00262927,-0.0
 0127842,-0.00024384,0.00045802,0.00228818,-0.07870335,0.00529257,-0.30
 413986,0.00008688,0.00007629,0.00033878,0.00061920,-0.00005395,-0.0021
 7742,0.00031414,-0.00008267,0.00069328,0.00022188,0.00009654,-0.000004
 70,0.00157678,0.00390336,-0.00943789,0.08183694,-0.01079792,0.32199333
 ,0.00530939,0.00640824,0.00260604,-0.00101031,-0.00239833,-0.00371625,
 -0.04486615,0.04340111,0.01123969,0.00056218,0.00190761,0.00075710,0.0
 0040075,0.02577711,0.01529657,-0.00537327,-0.00035964,-0.00229213,-0.0
 0067246,0.00023670,0.00007544,-0.00634011,-0.01562197,-0.00285337,0.00
 307318,-0.00604654,-0.00270958,0.04795193,0.00230510,0.00354139,0.0022
 1488,-0.00031051,-0.00087788,-0.00206221,0.05177949,-0.24534139,-0.130
 51235,-0.00032747,-0.00058145,-0.00047839,-0.00162618,-0.00631578,-0.0
 0505233,0.00311915,0.00000532,0.00053550,-0.00018371,0.00018921,0.0001
 0426,-0.00297480,-0.01311561,-0.00417347,-0.00030558,0.00471129,0.0033
 7218,-0.05188573,0.25761233,-0.00426792,-0.00450993,-0.00232615,-0.000
 14810,0.00096247,0.00323964,0.01355484,-0.12334298,-0.11866929,-0.0002
 4948,0.00019293,0.00047553,-0.00108339,0.00502312,0.00410112,-0.001139
 39,0.00098834,0.00057783,0.00054830,0.00006780,-0.00012847,0.00583584,
 0.00967967,-0.00005980,0.00425837,-0.02518296,-0.00992398,-0.01793652,
 0.13586009,0.12158871,0.00026106,0.00026332,0.00034076,0.00000746,-0.0
 0019659,-0.00037187,0.00076167,0.00196150,0.00080489,-0.04722860,0.003
 79929,0.00181673,-0.00618000,0.00102956,-0.00161243,0.00036870,0.02990
 731,0.01268346,-0.00012481,0.00008674,0.00000988,-0.00025441,-0.000300
 64,0.00009838,-0.00003501,-0.00003633,-0.00005241,-0.00066859,0.000238
 53,-0.00005317,0.05086261,-0.00018461,-0.00029006,-0.00030154,0.000053
 27,0.00018008,0.00033099,-0.00057843,-0.00076662,-0.00057061,0.0047026
 4,-0.27997596,-0.09221863,0.00315949,0.00046725,0.00105801,-0.00103013
 ,-0.01023055,-0.00379078,0.00000725,-0.00009788,-0.00003855,0.00029746
 ,0.00031556,-0.00008110,0.00006779,0.00001893,0.00003984,0.00030967,-0
 .00012419,0.00004824,-0.00729335,0.30242979,-0.00004188,-0.00003430,-0
 .00005802,0.00003821,0.00004678,0.00003039,-0.00029129,0.00005685,0.00
 053246,0.00221279,-0.09258000,-0.08474533,-0.00039440,0.00032757,0.000
 37651,0.00020383,0.00487180,0.00058328,-0.00000720,-0.00005757,0.00005
 416,0.00003417,0.00006301,-0.00001207,0.00011589,-0.00003168,-0.000006
 02,-0.00006295,0.00003703,-0.00002518,-0.00174861,0.10121799,0.0868240
 5,-0.00048329,-0.00005225,-0.00038840,-0.00013649,0.00017694,0.0003903
 3,-0.00003709,-0.00006304,-0.00021153,-0.16435747,-0.09825543,0.087009
 51,0.00121198,-0.00159228,-0.00014149,-0.02253590,-0.01735917,0.015875
 04,0.00042500,0.00008053,0.00016370,0.00040783,0.00007417,-0.00006692,
 0.00000219,-0.00000132,-0.00000092,0.00004821,0.00003817,-0.00001060,0
 .00059342,0.00080554,-0.00138905,0.18207549,0.00013978,-0.00003275,0.0
 0014912,0.00001413,-0.00007461,-0.00016753,0.00021309,0.00012473,0.000
 04878,-0.09900457,-0.12893554,0.07244256,0.00049549,0.00166208,-0.0004
 5701,0.00967750,0.00732124,-0.00780708,-0.00011017,-0.00002996,-0.0000
 3134,-0.00003160,-0.00004683,-0.00000189,-0.00002641,0.00000831,-0.000
 00610,-0.00008231,0.00002043,0.00001430,-0.01987459,-0.01559803,0.0161
 0424,0.10623003,0.13663709,0.00001450,0.00008181,0.00008398,-0.0000041
 6,-0.00002071,-0.00007422,-0.00003589,-0.00018475,0.00001652,0.0875104
 1,0.07232713,-0.11287967,0.00008667,0.00013822,-0.00016150,-0.00337290
 ,-0.00270826,0.00201636,0.00000424,-0.00000375,0.00001686,-0.00012626,
 -0.00006697,0.00001288,-0.00002787,0.00001436,-0.00001734,0.00003928,-
 0.00000739,-0.00001866,-0.00964987,-0.00689274,0.00639124,-0.09553006,
 -0.08000077,0.11753425,-0.00000261,-0.00008530,-0.00005655,-0.00016695
 ,-0.00002530,0.00018667,-0.00014060,-0.00009079,0.00022267,-0.06457551
 ,0.00185611,-0.06593636,0.00126311,-0.00130668,-0.00060915,-0.00957256
 ,0.00183414,-0.03158355,0.00016414,0.00014115,-0.00012104,0.00005166,0
 .00002354,-0.00008410,0.00018671,-0.00012277,0.00012985,0.00002857,0.0
 0001469,0.00010129,-0.00083535,-0.00042966,0.00089207,0.00625556,0.000
 53412,0.02170447,0.07170890,0.00010334,0.00009485,0.00015601,0.0000408
 8,-0.00005863,-0.00017583,0.00020212,0.00001909,-0.00015210,0.00191736
 ,-0.04867712,0.00881663,-0.00045462,0.00083324,0.00120892,0.00358470,-
 0.00153753,0.01308000,-0.00008167,-0.00003280,-0.00000108,-0.00014574,
 -0.00009168,0.00005375,-0.00013383,0.00000429,-0.00011950,-0.00003422,
 -0.00000640,-0.00004490,-0.00816317,0.00245349,-0.02998956,0.00587068,
 -0.00090259,0.01797905,-0.00501378,0.04812276,-0.00004921,0.00001862,-
 0.00001052,-0.00007720,-0.00001810,0.00006569,0.00007577,0.00006700,0.
 00042510,-0.06659910,0.00897507,-0.29483348,0.00052844,-0.00010083,0.0
 0069441,-0.00103647,0.00003026,-0.00210703,0.00011169,0.00005533,-0.00
 003282,0.00001938,-0.00003197,-0.00002006,0.00014649,-0.00013275,-0.00
 005059,-0.00007748,0.00005353,-0.00000820,-0.00221866,0.00089948,-0.01
 043171,-0.00409525,-0.00031139,-0.01447471,0.07444632,-0.01007587,0.31
 861139,0.00084243,0.00104380,0.00211736,-0.00021671,-0.00098867,-0.001
 97836,-0.02704739,-0.01072747,0.00995964,0.00118164,0.00114845,-0.0002
 6571,-0.17070866,-0.10286223,0.07665894,0.00008302,0.00002175,-0.00028
 296,-0.00016527,0.00026648,-0.00003223,-0.00285606,0.00068857,-0.00045
 599,0.00129384,0.00049751,-0.00049794,0.00054333,0.00066128,-0.0003396
 4,0.00007495,0.00009205,-0.00019690,0.00038041,-0.00024442,0.00026778,
 -0.00001070,-0.00014070,-0.00013546,0.19185308,-0.00165984,-0.00227916
 ,-0.00233028,-0.00002113,0.00104867,0.00235018,0.00882500,0.00608711,-
 0.00538968,-0.00152978,0.00140507,0.00080601,-0.09431388,-0.11499541,0
 .05610524,-0.02219015,-0.02132024,0.01298998,0.00057873,-0.00014964,0.
 00016542,0.00404919,0.00291755,-0.00058998,-0.00055752,0.00038046,0.00
 002464,-0.00106955,-0.00031556,0.00018362,0.00007920,0.00045902,-0.000
 25116,0.00111492,-0.00007044,-0.00036736,0.00010829,-0.00003227,0.0000
 7629,0.10675239,0.13225776,0.00072185,0.00117045,0.00091414,-0.0000212
 9,-0.00042985,-0.00108547,-0.00289613,-0.00268938,0.00205055,-0.000501
 05,0.00038554,0.00038565,0.07225679,0.05716638,-0.08937246,-0.00867117
 ,-0.00887232,0.00507078,-0.00006883,0.00001744,0.00002772,-0.00213802,
 -0.00161851,0.00103611,0.00059504,-0.00001591,0.00028662,0.00015200,-0
 .00016628,0.00013756,-0.00029559,0.00005210,-0.00008082,0.00013050,0.0
 0030880,0.00006480,0.00014985,0.00008135,-0.00013792,-0.08232899,-0.06
 101726,0.09389934,-0.00031205,-0.00060431,0.00006591,0.00004033,0.0000
 1464,0.00036030,-0.00841609,0.00106707,-0.03121567,0.00050142,-0.00019
 725,0.00094715,-0.05471934,0.00188519,-0.04419133,-0.00074931,-0.00050
 749,0.00049429,0.00001014,0.00000243,-0.00002908,0.00102885,0.00073946
 ,-0.00075529,-0.00463784,0.00290708,-0.00072224,0.00095313,-0.00033653
 ,0.00096032,-0.00007457,-0.00008360,-0.00012256,-0.00001639,-0.0000602
 4,0.00008753,0.00004590,0.00026636,-0.00024589,0.00431609,-0.00084134,
 0.02338814,0.06153126,-0.00024242,-0.00037681,-0.00056335,-0.00003401,
 0.00020713,0.00065167,0.00156128,-0.00120518,0.01554419,-0.00122972,0.
 00134438,-0.00040667,0.00259070,-0.04865114,0.00964297,-0.00521932,-0.
 00101298,-0.03260249,0.00023792,-0.00001510,-0.00010819,0.00046995,0.0
 0069560,-0.00031837,0.00329436,-0.00020478,-0.00013907,-0.00066431,0.0
 0018399,0.00007429,-0.00015871,0.00007594,0.00034261,0.00007987,-0.000
 05451,0.00008845,0.00047857,0.00000210,0.00068209,0.00318593,-0.001065
 56,0.01762407,-0.00463206,0.05434824,-0.00026764,-0.00009201,0.0001920
 9,-0.00006876,-0.00012636,-0.00008762,-0.00122290,0.00056247,-0.003638
 60,-0.00009373,0.00053483,0.00035926,-0.04568076,0.00957492,-0.2988019
 9,-0.00228189,-0.00089227,-0.01284888,0.00008275,0.00007431,-0.0000503
 4,0.00001397,0.00010930,-0.00002030,-0.00015627,0.00062780,0.00138351,
 -0.00049890,0.00025524,0.00062223,0.00009569,-0.00005793,0.00042058,-0
 .00002532,-0.00004257,-0.00005186,0.00053810,-0.00028529,0.00017291,-0
 .00208753,0.00063540,-0.01389073,0.05166161,-0.00841022,0.32462979,-0.
 00011249,0.00024319,0.00013119,0.00043395,0.00005070,-0.00046026,0.000
 70581,0.00007820,0.00102260,-0.00954755,0.00182001,-0.03099124,-0.0005
 7044,0.00001324,0.00076754,-0.06492804,-0.00029513,-0.06203643,-0.0004
 3230,-0.00039198,0.00042595,-0.00012252,-0.00025760,0.00013200,0.00014
 350,0.00019727,-0.00014198,-0.00004396,-0.00011140,-0.00001583,0.00128
 221,-0.00008386,0.00051317,0.00121037,-0.00094718,0.00017884,-0.005603
 04,0.00271974,-0.00034118,-0.00010480,0.00016180,-0.00038109,0.0005130
 7,0.00057603,0.00010468,0.07104022,-0.00016659,0.00007447,0.00002451,0
 .00027468,-0.00000705,-0.00011308,-0.00104609,0.00152968,-0.00048036,0
 .00411663,-0.00099404,0.01373963,-0.00682353,-0.00149466,-0.03295206,0
 .00005226,-0.04794486,0.00965193,-0.00025443,-0.00011102,0.00030502,0.
 00003357,0.00010542,0.00001105,0.00040348,-0.00021768,0.00053902,-0.00
 018875,0.00010792,0.00031756,-0.00060442,0.00007191,0.00018703,-0.0004
 2960,0.00042480,-0.00069312,0.00294704,-0.00046549,-0.00023226,-0.0002
 8514,0.00123016,0.00062286,0.00037251,-0.00573617,-0.00240477,-0.00413
 022,0.05410336,0.00002413,-0.00061663,-0.00044947,-0.00054516,-0.00001
 543,0.00082859,-0.00078129,0.00051603,0.00082908,-0.00045491,0.0003209
 3,-0.00109526,-0.00268274,-0.00097473,-0.01381422,-0.06273006,0.008984
 93,-0.28872144,0.00061550,0.00051293,-0.00061572,0.00043503,0.00052620
 ,-0.00036750,0.00062286,-0.00041647,0.00007888,0.00018541,0.00000841,0
 .00038423,-0.00033704,0.00042941,0.00024264,-0.00041514,-0.00010440,0.
 00046140,-0.00010134,0.00005400,0.00162917,-0.00011671,-0.00019962,0.0
 0056936,-0.00014108,-0.00265795,0.00078423,0.07009363,-0.00665874,0.31
 393647,-0.00152170,-0.00011993,-0.00035660,-0.00091734,0.00087506,0.00
 058455,0.00053838,0.00016141,-0.00027018,-0.02226611,-0.01662137,0.015
 16384,0.00038276,0.00031690,-0.00081645,-0.15947209,-0.09879778,0.0808
 5750,0.00017859,-0.00063674,-0.00055087,-0.00002640,0.00066419,0.00009
 757,0.00000306,-0.00001175,-0.00004068,0.00010418,-0.00009450,-0.00001
 491,0.00118926,0.00018848,0.00024469,-0.00504384,0.00307733,-0.0011467
 0,0.00120277,-0.00053745,-0.00045221,0.00054082,0.00051369,-0.00009202
 ,-0.00001460,-0.00029406,-0.00011311,0.00613601,0.00572859,-0.00367111
 ,0.17898624,-0.00121030,-0.00009650,-0.00141979,-0.00028967,0.00068237
 ,0.00129382,-0.00256253,0.00056471,0.00066087,0.01074663,0.00825221,-0
 .00750043,-0.01975231,-0.02111165,0.01441542,-0.09837584,-0.13036685,0
 .07183561,0.00094154,0.00038182,0.00029938,0.00156950,-0.00015679,-0.0
 0012235,0.00009726,-0.00008221,0.00002601,0.00031092,0.00030638,-0.000
 33166,-0.00073765,0.00061135,-0.00031065,0.00328224,-0.00045341,0.0003
 1679,-0.00086339,0.00027468,0.00004549,0.00089040,-0.00555752,-0.00261
 949,0.00000807,0.00146484,-0.00006285,0.00035719,-0.00067674,0.0002911
 4,0.10558794,0.14596332,0.00125688,0.00038791,0.00045796,0.00046582,-0
 .00045879,-0.00097574,-0.00004389,0.00082983,-0.00013459,-0.00291470,-
 0.00271656,0.00206538,-0.00881728,-0.00929678,0.00609541,0.08273960,0.
 07398891,-0.11241192,-0.00200734,-0.00012728,-0.00028695,-0.00056459,-
 0.00037571,0.00031083,0.00002591,-0.00007835,-0.00002634,-0.00020435,0
 .00001129,0.00003290,0.00048986,-0.00012421,-0.00009617,-0.00129439,-0
 .00013771,0.00107966,0.00012078,-0.00058557,0.00050837,-0.00028532,-0.
 00319145,0.00012478,-0.00054212,0.00055599,0.00082572,0.02099840,0.018
 13577,-0.01468044,-0.08942328,-0.07681729,0.11711114\\0.00000675,-0.00
 003648,-0.00001576,0.00000859,-0.00002226,-0.00002804,-0.00001004,-0.0
 0001544,0.00000851,0.00001172,0.00001904,0.00001074,-0.00001115,0.0000
 0274,0.00000954,0.00000782,0.00000787,0.00000026,0.00001940,-0.0000172
 0,-0.00002750,-0.00002721,-0.00000820,-0.00002308,-0.00000767,-0.00000
 447,-0.00000068,-0.00002840,-0.00001305,0.00000548,0.00002514,0.000022
 12,0.00000453,0.00001080,0.00002983,0.00001998,0.00000355,0.00001656,0
 .00001242,-0.00001321,0.00001340,0.00001972,-0.00002017,-0.00000157,0.
 00001106,0.00001570,0.00001027,-0.00000003,0.00000839,-0.00000317,-0.0
 0000714\\\@


 HAPPINESS IS NOT HAVING WHAT YOU WANT --
 HAPPINESS IS WANTING WHAT YOU HAVE!

              -- FROM MRS. SEVERN'S DESK
 Job cpu time:  0 days  4 hours 18 minutes 43.8 seconds.
 File lengths (MBytes):  RWF=    299 Int=      0 D2E=      0 Chk=      9 Scr=      1
 Normal termination of Gaussian 09 at Wed May  9 01:44:25 2018.
