 Entering Gaussian System, Link 0=g09
 Initial command:
 /shared/apps/gaussian/G09_LINUX_LINDA/g09/l1.exe /home/harms.n/Code/AutoTST/Gau-33301.inp -scrdir=/home/harms.n/Code/AutoTST/
 Entering Link 1 = /shared/apps/gaussian/G09_LINUX_LINDA/g09/l1.exe PID=     33302.
  
 Copyright (c) 1988,1990,1992,1993,1995,1998,2003,2009,2010,
            Gaussian, Inc.  All Rights Reserved.
  
 This is part of the Gaussian(R) 09 program.  It is based on
 the Gaussian(R) 03 system (copyright 2003, Gaussian, Inc.),
 the Gaussian(R) 98 system (copyright 1998, Gaussian, Inc.),
 the Gaussian(R) 94 system (copyright 1995, Gaussian, Inc.),
 the Gaussian 92(TM) system (copyright 1992, Gaussian, Inc.),
 the Gaussian 90(TM) system (copyright 1990, Gaussian, Inc.),
 the Gaussian 88(TM) system (copyright 1988, Gaussian, Inc.),
 the Gaussian 86(TM) system (copyright 1986, Carnegie Mellon
 University), and the Gaussian 82(TM) system (copyright 1983,
 Carnegie Mellon University). Gaussian is a federally registered
 trademark of Gaussian, Inc.
  
 This software contains proprietary and confidential information,
 including trade secrets, belonging to Gaussian, Inc.
  
 This software is provided under written license and may be
 used, copied, transmitted, or stored only in accord with that
 written license.
  
 The following legend is applicable only to US Government
 contracts under FAR:
  
                    RESTRICTED RIGHTS LEGEND
  
 Use, reproduction and disclosure by the US Government is
 subject to restrictions as set forth in subparagraphs (a)
 and (c) of the Commercial Computer Software - Restricted
 Rights clause in FAR 52.227-19.
  
 Gaussian, Inc.
 340 Quinnipiac St., Bldg. 40, Wallingford CT 06492
  
  
 ---------------------------------------------------------------
 Warning -- This program may not be used in any manner that
 competes with the business of Gaussian, Inc. or will provide
 assistance to any competitor of Gaussian, Inc.  The licensee
 of this program is prohibited from giving any competitor of
 Gaussian, Inc. access to this program.  By using this program,
 the user acknowledges that Gaussian, Inc. is engaged in the
 business of creating and licensing software in the field of
 computational chemistry and represents and warrants to the
 licensee that it is not a competitor of Gaussian, Inc. and that
 it will not use this program in any manner prohibited above.
 ---------------------------------------------------------------
  

 Cite this work as:
 Gaussian 09, Revision B.01,
 M. J. Frisch, G. W. Trucks, H. B. Schlegel, G. E. Scuseria, 
 M. A. Robb, J. R. Cheeseman, G. Scalmani, V. Barone, B. Mennucci, 
 G. A. Petersson, H. Nakatsuji, M. Caricato, X. Li, H. P. Hratchian, 
 A. F. Izmaylov, J. Bloino, G. Zheng, J. L. Sonnenberg, M. Hada, 
 M. Ehara, K. Toyota, R. Fukuda, J. Hasegawa, M. Ishida, T. Nakajima, 
 Y. Honda, O. Kitao, H. Nakai, T. Vreven, J. A. Montgomery, Jr., 
 J. E. Peralta, F. Ogliaro, M. Bearpark, J. J. Heyd, E. Brothers, 
 K. N. Kudin, V. N. Staroverov, T. Keith, R. Kobayashi, J. Normand, 
 K. Raghavachari, A. Rendell, J. C. Burant, S. S. Iyengar, J. Tomasi, 
 M. Cossi, N. Rega, J. M. Millam, M. Klene, J. E. Knox, J. B. Cross, 
 V. Bakken, C. Adamo, J. Jaramillo, R. Gomperts, R. E. Stratmann, 
 O. Yazyev, A. J. Austin, R. Cammi, C. Pomelli, J. W. Ochterski, 
 R. L. Martin, K. Morokuma, V. G. Zakrzewski, G. A. Voth, 
 P. Salvador, J. J. Dannenberg, S. Dapprich, A. D. Daniels, 
 O. Farkas, J. B. Foresman, J. V. Ortiz, J. Cioslowski, 
 and D. J. Fox, Gaussian, Inc., Wallingford CT, 2010.
 
 ******************************************
 Gaussian 09:  EM64L-G09RevB.01 12-Aug-2010
                 9-May-2018 
 ******************************************
 %nprocshared=20
 Will use up to   20 processors via shared memory.
 %mem=5GB
 -------------------------------------------------------------
 #p m062x/6-311+g(2df,2p) opt=(ts,calcfc,noeigentest,ModRedun)
 -------------------------------------------------------------
 1/5=1,10=4,11=1,14=-1,18=120,26=3,38=1/1,3;
 2/9=110,12=2,17=6,18=5,40=1/2;
 3/5=4,6=6,7=214,11=2,16=1,25=1,30=1,71=2,74=-55/1,2,3;
 4//1;
 5/5=2,38=5/2;
 8/6=4,10=90,11=11/1;
 11/6=1,8=1,9=11,15=111,16=1/1,2,10;
 10/6=1,7=6,13=1/2;
 6/7=2,8=2,9=2,10=2,28=1/1;
 7/10=1,18=20,25=1/1,2,3,16;
 1/5=1,10=4,11=1,14=-1,18=20/3(2);
 2/9=110/2;
 99//99;
 2/9=110/2;
 3/5=4,6=6,7=214,11=2,16=1,25=1,30=1,71=1,74=-55/1,2,3;
 4/5=5,16=3/1;
 5/5=2,38=5/2;
 7//1,2,3,16;
 1/5=1,11=1,14=-1,18=20/3(-5);
 2/9=110/2;
 6/7=2,8=2,9=2,10=2,19=2,28=1/1;
 99/9=1/99;
 Leave Link    1 at Wed May  9 00:05:26 2018, MaxMem=  671088640 cpu:       1.4
 (Enter /shared/apps/gaussian/G09_LINUX_LINDA/g09/l101.exe)
 ------------------------------
 Gaussian input prepared by ASE
 ------------------------------
 Symbolic Z-matrix:
 Charge =  0 Multiplicity = 2
 O                     2.5032    0.16413  -0.74106 
 O                     2.79631   0.60277   0.5459 
 C                     0.80264  -1.54968  -0.0899 
 C                    -1.96618   1.16741   0.09619 
 C                    -0.51392  -0.87222  -0.32308 
 C                    -0.57659   0.55593   0.21834 
 H                     2.17662   1.33127   0.67641 
 H                     1.77378  -0.71131  -0.56679 
 H                     1.16035  -1.57566   0.93759 
 H                     0.98974  -2.46659  -0.64146 
 H                    -1.9837    2.19041   0.46937 
 H                    -2.69718   0.5908    0.6623 
 H                    -2.29265   1.18813  -0.94449 
 H                    -1.30418  -1.46626   0.155 
 H                    -0.74775  -0.86906  -1.39062 
 H                    -0.26468   0.55415   1.26733 
 H                     0.14418   1.16578  -0.33082 
 
 NAtoms=     17 NQM=     17 NQMF=      0 NMic=      0 NMicF=      0 NTot=     17.
 The following ModRedundant input section has been read:
 B       2       4 F                                                           
 B       2       5 F                                                           
 B       2       6 F                                                           
 B       2       7 F                                                           
 B       2       9 F                                                           
 B       2      10 F                                                           
 B       2      11 F                                                           
 B       2      12 F                                                           
 B       2      13 F                                                           
 B       2      14 F                                                           
 B       2      15 F                                                           
 B       2      16 F                                                           
 B       2      17 F                                                           
 B       4       5 F                                                           
 B       4       6 F                                                           
 B       4       7 F                                                           
 B       4       9 F                                                           
 B       4      10 F                                                           
 B       4      11 F                                                           
 B       4      12 F                                                           
 B       4      13 F                                                           
 B       4      14 F                                                           
 B       4      15 F                                                           
 B       4      16 F                                                           
 B       4      17 F                                                           
 B       5       6 F                                                           
 B       5       7 F                                                           
 B       5       9 F                                                           
 B       5      10 F                                                           
 B       5      11 F                                                           
 B       5      12 F                                                           
 B       5      13 F                                                           
 B       5      14 F                                                           
 B       5      15 F                                                           
 B       5      16 F                                                           
 B       5      17 F                                                           
 B       6       7 F                                                           
 B       6       9 F                                                           
 B       6      10 F                                                           
 B       6      11 F                                                           
 B       6      12 F                                                           
 B       6      13 F                                                           
 B       6      14 F                                                           
 B       6      15 F                                                           
 B       6      16 F                                                           
 B       6      17 F                                                           
 B       7       9 F                                                           
 B       7      10 F                                                           
 B       7      11 F                                                           
 B       7      12 F                                                           
 B       7      13 F                                                           
 B       7      14 F                                                           
 B       7      15 F                                                           
 B       7      16 F                                                           
 B       7      17 F                                                           
 B       9      10 F                                                           
 B       9      11 F                                                           
 B       9      12 F                                                           
 B       9      13 F                                                           
 B       9      14 F                                                           
 B       9      15 F                                                           
 B       9      16 F                                                           
 B       9      17 F                                                           
 B      10      11 F                                                           
 B      10      12 F                                                           
 B      10      13 F                                                           
 B      10      14 F                                                           
 B      10      15 F                                                           
 B      10      16 F                                                           
 B      10      17 F                                                           
 B      11      12 F                                                           
 B      11      13 F                                                           
 B      11      14 F                                                           
 B      11      15 F                                                           
 B      11      16 F                                                           
 B      11      17 F                                                           
 B      12      13 F                                                           
 B      12      14 F                                                           
 B      12      15 F                                                           
 B      12      16 F                                                           
 B      12      17 F                                                           
 B      13      14 F                                                           
 B      13      15 F                                                           
 B      13      16 F                                                           
 B      13      17 F                                                           
 B      14      15 F                                                           
 B      14      16 F                                                           
 B      14      17 F                                                           
 B      15      16 F                                                           
 B      15      17 F                                                           
 B      16      17 F                                                           
                    Isotopes and Nuclear Properties:
 (Nuclear quadrupole moments (NQMom) in fm**2, nuclear magnetic moments (NMagM)
  in nuclear magnetons)

  Atom         1           2           3           4           5           6           7           8           9          10
 IAtWgt=          16          16          12          12          12          12           1           1           1           1
 AtmWgt=  15.9949146  15.9949146  12.0000000  12.0000000  12.0000000  12.0000000   1.0078250   1.0078250   1.0078250   1.0078250
 NucSpn=           0           0           0           0           0           0           1           1           1           1
 AtZEff=   0.0000000   0.0000000   0.0000000   0.0000000   0.0000000   0.0000000   0.0000000   0.0000000   0.0000000   0.0000000
 NQMom=    0.0000000   0.0000000   0.0000000   0.0000000   0.0000000   0.0000000   0.0000000   0.0000000   0.0000000   0.0000000
 NMagM=    0.0000000   0.0000000   0.0000000   0.0000000   0.0000000   0.0000000   2.7928460   2.7928460   2.7928460   2.7928460

  Atom        11          12          13          14          15          16          17
 IAtWgt=           1           1           1           1           1           1           1
 AtmWgt=   1.0078250   1.0078250   1.0078250   1.0078250   1.0078250   1.0078250   1.0078250
 NucSpn=           1           1           1           1           1           1           1
 AtZEff=   0.0000000   0.0000000   0.0000000   0.0000000   0.0000000   0.0000000   0.0000000
 NQMom=    0.0000000   0.0000000   0.0000000   0.0000000   0.0000000   0.0000000   0.0000000
 NMagM=    2.7928460   2.7928460   2.7928460   2.7928460   2.7928460   2.7928460   2.7928460
 Leave Link  101 at Wed May  9 00:05:26 2018, MaxMem=  671088640 cpu:       1.4
 (Enter /shared/apps/gaussian/G09_LINUX_LINDA/g09/l103.exe)

 GradGradGradGradGradGradGradGradGradGradGradGradGradGradGradGradGradGrad
 Berny optimization.
 Initialization pass.
                           ----------------------------
                           !    Initial Parameters    !
                           ! (Angstroms and Degrees)  !
 --------------------------                            --------------------------
 ! Name  Definition              Value          Derivative Info.                !
 --------------------------------------------------------------------------------
 ! R1    R(1,2)                  1.3909         calculate D2E/DX2 analytically  !
 ! R2    R(1,8)                  1.1527         calculate D2E/DX2 analytically  !
 ! R3    R(2,4)                  4.8169         frozen, calculate D2E/DX2 analyt!
 ! R4    R(2,5)                  3.7267         frozen, calculate D2E/DX2 analyt!
 ! R5    R(2,6)                  3.3891         frozen, calculate D2E/DX2 analyt!
 ! R6    R(2,7)                  0.9653         frozen, calculate D2E/DX2 analyt!
 ! R7    R(2,9)                  2.7523         frozen, calculate D2E/DX2 analyt!
 ! R8    R(2,10)                 3.7543         frozen, calculate D2E/DX2 analyt!
 ! R9    R(2,11)                 5.0374         frozen, calculate D2E/DX2 analyt!
 ! R10   R(2,12)                 5.4947         frozen, calculate D2E/DX2 analyt!
 ! R11   R(2,13)                 5.3349         frozen, calculate D2E/DX2 analyt!
 ! R12   R(2,14)                 4.6095         frozen, calculate D2E/DX2 analyt!
 ! R13   R(2,15)                 4.2985         frozen, calculate D2E/DX2 analyt!
 ! R14   R(2,16)                 3.1452         frozen, calculate D2E/DX2 analyt!
 ! R15   R(2,17)                 2.8495         frozen, calculate D2E/DX2 analyt!
 ! R16   R(3,5)                  1.4989         calculate D2E/DX2 analytically  !
 ! R17   R(3,8)                  1.3687         calculate D2E/DX2 analytically  !
 ! R18   R(3,9)                  1.0883         calculate D2E/DX2 analytically  !
 ! R19   R(3,10)                 1.0863         calculate D2E/DX2 analytically  !
 ! R20   R(4,5)                  2.5387         frozen, calculate D2E/DX2 analyt!
 ! R21   R(4,6)                  1.5231         frozen, calculate D2E/DX2 analyt!
 ! R22   R(4,7)                  4.1864         frozen, calculate D2E/DX2 analyt!
 ! R23   R(4,9)                  4.2435         frozen, calculate D2E/DX2 analyt!
 ! R24   R(4,10)                 4.7421         frozen, calculate D2E/DX2 analyt!
 ! R25   R(4,11)                 1.0891         frozen, calculate D2E/DX2 analyt!
 ! R26   R(4,12)                 1.0896         frozen, calculate D2E/DX2 analyt!
 ! R27   R(4,13)                 1.0909         frozen, calculate D2E/DX2 analyt!
 ! R28   R(4,14)                 2.7162         frozen, calculate D2E/DX2 analyt!
 ! R29   R(4,15)                 2.8004         frozen, calculate D2E/DX2 analyt!
 ! R30   R(4,16)                 2.1547         frozen, calculate D2E/DX2 analyt!
 ! R31   R(4,17)                 2.1531         frozen, calculate D2E/DX2 analyt!
 ! R32   R(5,6)                  1.5286         frozen, calculate D2E/DX2 analyt!
 ! R33   R(5,7)                  3.6185         frozen, calculate D2E/DX2 analyt!
 ! R34   R(5,9)                  2.2107         frozen, calculate D2E/DX2 analyt!
 ! R35   R(5,10)                 2.2146         frozen, calculate D2E/DX2 analyt!
 ! R36   R(5,11)                 3.4883         frozen, calculate D2E/DX2 analyt!
 ! R37   R(5,12)                 2.8068         frozen, calculate D2E/DX2 analyt!
 ! R38   R(5,13)                 2.792          frozen, calculate D2E/DX2 analyt!
 ! R39   R(5,14)                 1.0982         frozen, calculate D2E/DX2 analyt!
 ! R40   R(5,15)                 1.0928         frozen, calculate D2E/DX2 analyt!
 ! R41   R(5,16)                 2.1508         frozen, calculate D2E/DX2 analyt!
 ! R42   R(5,17)                 2.1416         frozen, calculate D2E/DX2 analyt!
 ! R43   R(6,7)                  2.8967         frozen, calculate D2E/DX2 analyt!
 ! R44   R(6,9)                  2.8422         frozen, calculate D2E/DX2 analyt!
 ! R45   R(6,10)                 3.5112         frozen, calculate D2E/DX2 analyt!
 ! R46   R(6,11)                 2.1713         frozen, calculate D2E/DX2 analyt!
 ! R47   R(6,12)                 2.1668         frozen, calculate D2E/DX2 analyt!
 ! R48   R(6,13)                 2.1672         frozen, calculate D2E/DX2 analyt!
 ! R49   R(6,14)                 2.15           frozen, calculate D2E/DX2 analyt!
 ! R50   R(6,15)                 2.1561         frozen, calculate D2E/DX2 analyt!
 ! R51   R(6,16)                 1.0944         frozen, calculate D2E/DX2 analyt!
 ! R52   R(6,17)                 1.0922         frozen, calculate D2E/DX2 analyt!
 ! R53   R(7,9)                  3.0905         frozen, calculate D2E/DX2 analyt!
 ! R54   R(7,10)                 4.1916         frozen, calculate D2E/DX2 analyt!
 ! R55   R(7,11)                 4.2531         frozen, calculate D2E/DX2 analyt!
 ! R56   R(7,12)                 4.9297         frozen, calculate D2E/DX2 analyt!
 ! R57   R(7,13)                 4.7563         frozen, calculate D2E/DX2 analyt!
 ! R58   R(7,14)                 4.496          frozen, calculate D2E/DX2 analyt!
 ! R59   R(7,15)                 4.2031         frozen, calculate D2E/DX2 analyt!
 ! R60   R(7,16)                 2.6293         frozen, calculate D2E/DX2 analyt!
 ! R61   R(7,17)                 2.2744         frozen, calculate D2E/DX2 analyt!
 ! R62   R(9,10)                 1.8211         frozen, calculate D2E/DX2 analyt!
 ! R63   R(9,11)                 4.9282         frozen, calculate D2E/DX2 analyt!
 ! R64   R(9,12)                 4.4328         frozen, calculate D2E/DX2 analyt!
 ! R65   R(9,13)                 4.8067         frozen, calculate D2E/DX2 analyt!
 ! R66   R(9,14)                 2.5881         frozen, calculate D2E/DX2 analyt!
 ! R67   R(9,15)                 3.092          frozen, calculate D2E/DX2 analyt!
 ! R68   R(9,16)                 2.5837         frozen, calculate D2E/DX2 analyt!
 ! R69   R(9,17)                 3.187          frozen, calculate D2E/DX2 analyt!
 ! R70   R(10,11)                5.6359         frozen, calculate D2E/DX2 analyt!
 ! R71   R(10,12)                4.964          frozen, calculate D2E/DX2 analyt!
 ! R72   R(10,13)                4.9217         frozen, calculate D2E/DX2 analyt!
 ! R73   R(10,14)                2.6262         frozen, calculate D2E/DX2 analyt!
 ! R74   R(10,15)                2.4763         frozen, calculate D2E/DX2 analyt!
 ! R75   R(10,16)                3.7871         frozen, calculate D2E/DX2 analyt!
 ! R76   R(10,17)                3.7424         frozen, calculate D2E/DX2 analyt!
 ! R77   R(11,12)                1.7621         frozen, calculate D2E/DX2 analyt!
 ! R78   R(11,13)                1.7604         frozen, calculate D2E/DX2 analyt!
 ! R79   R(11,14)                3.7325         frozen, calculate D2E/DX2 analyt!
 ! R80   R(11,15)                3.7878         frozen, calculate D2E/DX2 analyt!
 ! R81   R(11,16)                2.5038         frozen, calculate D2E/DX2 analyt!
 ! R82   R(11,17)                2.4936         frozen, calculate D2E/DX2 analyt!
 ! R83   R(12,13)                1.7613         frozen, calculate D2E/DX2 analyt!
 ! R84   R(12,14)                2.5356         frozen, calculate D2E/DX2 analyt!
 ! R85   R(12,15)                3.1853         frozen, calculate D2E/DX2 analyt!
 ! R86   R(12,16)                2.5069         frozen, calculate D2E/DX2 analyt!
 ! R87   R(12,17)                3.0643         frozen, calculate D2E/DX2 analyt!
 ! R88   R(13,14)                3.0384         frozen, calculate D2E/DX2 analyt!
 ! R89   R(13,15)                2.6111         frozen, calculate D2E/DX2 analyt!
 ! R90   R(13,16)                3.067          frozen, calculate D2E/DX2 analyt!
 ! R91   R(13,17)                2.513          frozen, calculate D2E/DX2 analyt!
 ! R92   R(14,15)                1.7479         frozen, calculate D2E/DX2 analyt!
 ! R93   R(14,16)                2.5298         frozen, calculate D2E/DX2 analyt!
 ! R94   R(14,17)                3.0433         frozen, calculate D2E/DX2 analyt!
 ! R95   R(15,16)                3.0535         frozen, calculate D2E/DX2 analyt!
 ! R96   R(15,17)                2.4616         frozen, calculate D2E/DX2 analyt!
 ! R97   R(16,17)                1.7594         frozen, calculate D2E/DX2 analyt!
 ! A1    A(2,1,8)              103.4715         calculate D2E/DX2 analytically  !
 ! A2    A(1,2,7)              103.1689         calculate D2E/DX2 analytically  !
 ! A3    A(5,3,8)              106.9879         calculate D2E/DX2 analytically  !
 ! A4    A(5,3,9)              116.5116         calculate D2E/DX2 analytically  !
 ! A5    A(5,3,10)             116.9881         calculate D2E/DX2 analytically  !
 ! A6    A(8,3,9)               96.3363         calculate D2E/DX2 analytically  !
 ! A7    A(8,3,10)             102.5866         calculate D2E/DX2 analytically  !
 ! A8    A(9,3,10)             113.7428         calculate D2E/DX2 analytically  !
 ! A9    A(6,4,11)             111.3649         calculate D2E/DX2 analytically  !
 ! A10   A(6,4,12)             110.9738         calculate D2E/DX2 analytically  !
 ! A11   A(6,4,13)             110.9265         calculate D2E/DX2 analytically  !
 ! A12   A(11,4,12)            107.9538         calculate D2E/DX2 analytically  !
 ! A13   A(11,4,13)            107.7126         calculate D2E/DX2 analytically  !
 ! A14   A(12,4,13)            107.7528         calculate D2E/DX2 analytically  !
 ! A15   A(3,5,6)              113.7765         calculate D2E/DX2 analytically  !
 ! A16   A(3,5,14)             108.6553         calculate D2E/DX2 analytically  !
 ! A17   A(3,5,15)             109.9504         calculate D2E/DX2 analytically  !
 ! A18   A(6,5,14)             108.7651         calculate D2E/DX2 analytically  !
 ! A19   A(6,5,15)             109.5432         calculate D2E/DX2 analytically  !
 ! A20   A(14,5,15)            105.8344         calculate D2E/DX2 analytically  !
 ! A21   A(4,6,5)              112.5867         calculate D2E/DX2 analytically  !
 ! A22   A(4,6,16)             109.7282         calculate D2E/DX2 analytically  !
 ! A23   A(4,6,17)             109.7289         calculate D2E/DX2 analytically  !
 ! A24   A(5,6,16)             109.044          calculate D2E/DX2 analytically  !
 ! A25   A(5,6,17)             108.4525         calculate D2E/DX2 analytically  !
 ! A26   A(16,6,17)            107.1431         calculate D2E/DX2 analytically  !
 ! A27   A(1,8,3)              165.1976         calculate D2E/DX2 analytically  !
 ! D1    D(8,1,2,7)            -95.6613         calculate D2E/DX2 analytically  !
 ! D2    D(2,1,8,3)             34.435          calculate D2E/DX2 analytically  !
 ! D3    D(8,3,5,6)            -52.1043         calculate D2E/DX2 analytically  !
 ! D4    D(8,3,5,14)          -173.4203         calculate D2E/DX2 analytically  !
 ! D5    D(8,3,5,15)            71.1804         calculate D2E/DX2 analytically  !
 ! D6    D(9,3,5,6)             54.2367         calculate D2E/DX2 analytically  !
 ! D7    D(9,3,5,14)           -67.0792         calculate D2E/DX2 analytically  !
 ! D8    D(9,3,5,15)           177.5215         calculate D2E/DX2 analytically  !
 ! D9    D(10,3,5,6)          -166.3897         calculate D2E/DX2 analytically  !
 ! D10   D(10,3,5,14)           72.2943         calculate D2E/DX2 analytically  !
 ! D11   D(10,3,5,15)          -43.105          calculate D2E/DX2 analytically  !
 ! D12   D(5,3,8,1)             67.5173         calculate D2E/DX2 analytically  !
 ! D13   D(9,3,8,1)            -52.7169         calculate D2E/DX2 analytically  !
 ! D14   D(10,3,8,1)          -168.8129         calculate D2E/DX2 analytically  !
 ! D15   D(11,4,6,5)          -178.8874         calculate D2E/DX2 analytically  !
 ! D16   D(11,4,6,16)           59.4704         calculate D2E/DX2 analytically  !
 ! D17   D(11,4,6,17)          -57.9987         calculate D2E/DX2 analytically  !
 ! D18   D(12,4,6,5)            60.8182         calculate D2E/DX2 analytically  !
 ! D19   D(12,4,6,16)          -60.824          calculate D2E/DX2 analytically  !
 ! D20   D(12,4,6,17)         -178.293          calculate D2E/DX2 analytically  !
 ! D21   D(13,4,6,5)           -58.9302         calculate D2E/DX2 analytically  !
 ! D22   D(13,4,6,16)          179.4276         calculate D2E/DX2 analytically  !
 ! D23   D(13,4,6,17)           61.9585         calculate D2E/DX2 analytically  !
 ! D24   D(3,5,6,4)           -174.0989         calculate D2E/DX2 analytically  !
 ! D25   D(3,5,6,16)           -52.069          calculate D2E/DX2 analytically  !
 ! D26   D(3,5,6,17)            64.2844         calculate D2E/DX2 analytically  !
 ! D27   D(14,5,6,4)           -52.8442         calculate D2E/DX2 analytically  !
 ! D28   D(14,5,6,16)           69.1858         calculate D2E/DX2 analytically  !
 ! D29   D(14,5,6,17)         -174.4608         calculate D2E/DX2 analytically  !
 ! D30   D(15,5,6,4)            62.3946         calculate D2E/DX2 analytically  !
 ! D31   D(15,5,6,16)         -175.5755         calculate D2E/DX2 analytically  !
 ! D32   D(15,5,6,17)          -59.222          calculate D2E/DX2 analytically  !
 --------------------------------------------------------------------------------
 Trust Radius=3.00D-01 FncErr=1.00D-07 GrdErr=1.00D-06
 Number of steps in this run=    102 maximum allowed number of steps=    102.
 Search for a saddle point of order  1.
 GradGradGradGradGradGradGradGradGradGradGradGradGradGradGradGradGradGrad

 Leave Link  103 at Wed May  9 00:05:26 2018, MaxMem=  671088640 cpu:       0.2
 (Enter /shared/apps/gaussian/G09_LINUX_LINDA/g09/l202.exe)
                          Input orientation:                          
 ---------------------------------------------------------------------
 Center     Atomic      Atomic             Coordinates (Angstroms)
 Number     Number       Type             X           Y           Z
 ---------------------------------------------------------------------
      1          8           0        2.503198    0.164129   -0.741063
      2          8           0        2.796313    0.602769    0.545897
      3          6           0        0.802644   -1.549678   -0.089902
      4          6           0       -1.966182    1.167414    0.096189
      5          6           0       -0.513922   -0.872223   -0.323085
      6          6           0       -0.576586    0.555931    0.218341
      7          1           0        2.176621    1.331272    0.676412
      8          1           0        1.773777   -0.711306   -0.566786
      9          1           0        1.160354   -1.575660    0.937594
     10          1           0        0.989739   -2.466591   -0.641463
     11          1           0       -1.983700    2.190408    0.469372
     12          1           0       -2.697178    0.590802    0.662301
     13          1           0       -2.292651    1.188125   -0.944495
     14          1           0       -1.304183   -1.466260    0.154996
     15          1           0       -0.747746   -0.869064   -1.390620
     16          1           0       -0.264677    0.554148    1.267328
     17          1           0        0.144178    1.165784   -0.330817
 ---------------------------------------------------------------------
                    Distance matrix (angstroms):
                    1          2          3          4          5
     1  O    0.000000
     2  O    1.390894   0.000000
     3  C    2.500605   3.001996   0.000000
     4  C    4.656493   4.816889   3.883763   0.000000
     5  C    3.217412   3.726712   1.498888   2.538694   0.000000
     6  C    3.249467   3.389091   2.535918   1.523092   1.528625
     7  H    1.864969   0.965282   3.282518   4.186446   3.618481
     8  H    1.152741   2.002607   1.368716   4.237502   2.306264
     9  H    2.765498   2.752333   1.088292   4.243542   2.210732
    10  H    3.036637   3.754265   1.086257   4.742108   2.214581
    11  H    5.069833   5.037358   4.697312   1.089077   3.488258
    12  H    5.403276   5.494737   4.170877   1.089642   2.806784
    13  H    4.908168   5.334928   4.219804   1.090886   2.791964
    14  H    4.237598   4.609529   2.122653   2.716236   1.098160
    15  H    3.472470   4.298458   2.135137   2.800434   1.092847
    16  H    3.441929   3.145232   2.721641   2.154711   2.150830
    17  H    2.595494   2.849462   2.804523   2.153128   2.141642
                    6          7          8          9         10
     6  C    0.000000
     7  H    2.896745   0.000000
     8  H    2.783258   2.424861   0.000000
     9  H    2.842177   3.090513   1.840259   0.000000
    10  H    3.511165   4.191569   1.923881   1.821068   0.000000
    11  H    2.171290   4.253146   4.859239   4.928242   5.635861
    12  H    2.166847   4.929748   4.816179   4.432820   4.963951
    13  H    2.167195   4.756282   4.504036   4.806663   4.921673
    14  H    2.150039   4.496005   3.250349   2.588121   2.626230
    15  H    2.156076   4.203097   2.657380   3.092039   2.476324
    16  H    1.094378   2.629266   3.020040   2.583703   3.787071
    17  H    1.092244   2.274361   2.496947   3.187004   3.742409
                   11         12         13         14         15
    11  H    0.000000
    12  H    1.762105   0.000000
    13  H    1.760409   1.761315   0.000000
    14  H    3.732532   2.535606   3.038373   0.000000
    15  H    3.787812   3.185276   2.611089   1.747911   0.000000
    16  H    2.503821   2.506883   3.067045   2.529804   3.053453
    17  H    2.493596   3.064343   2.513013   3.043259   2.461569
                   16         17
    16  H    0.000000
    17  H    1.759354   0.000000
 Stoichiometry    C4H11O2(2)
 Framework group  C1[X(C4H11O2)]
 Deg. of freedom    45
 Full point group                 C1      NOp   1
 Largest Abelian subgroup         C1      NOp   1
 Largest concise Abelian subgroup C1      NOp   1
                         Standard orientation:                         
 ---------------------------------------------------------------------
 Center     Atomic      Atomic             Coordinates (Angstroms)
 Number     Number       Type             X           Y           Z
 ---------------------------------------------------------------------
      1          8           0        1.980204   -0.231953    0.724509
      2          8           0        2.187042   -0.961948   -0.441215
      3          6           0        0.494390    1.511943   -0.277592
      4          6           0       -2.597409   -0.808676    0.095399
      5          6           0       -0.891335    1.071268    0.086056
      6          6           0       -1.145063   -0.418250   -0.145570
      7          1           0        1.477950   -1.616537   -0.419510
      8          1           0        1.362874    0.673963    0.368092
      9          1           0        0.829482    1.278194   -1.286281
     10          1           0        0.807508    2.491861    0.071223
     11          1           0       -2.751683   -1.876077   -0.056074
     12          1           0       -3.262610   -0.273723   -0.581840
     13          1           0       -2.900558   -0.571062    1.116024
     14          1           0       -1.611159    1.648958   -0.508992
     15          1           0       -1.099791    1.319662    1.129685
     16          1           0       -0.858918   -0.674088   -1.170426
     17          1           0       -0.494565   -0.987657    0.521983
 ---------------------------------------------------------------------
 Rotational constants (GHZ):      4.7169699      1.6594271      1.3571531
 Leave Link  202 at Wed May  9 00:05:26 2018, MaxMem=  671088640 cpu:       0.8
 (Enter /shared/apps/gaussian/G09_LINUX_LINDA/g09/l301.exe)
 Standard basis: 6-311+G(2df,2p) (5D, 7F)
 Ernie: Thresh=  0.10000D-02 Tol=  0.10000D-05 Strict=F.
 There are   303 symmetry adapted basis functions of A   symmetry.
 Integral buffers will be    131072 words long.
 Raffenetti 2 integral format.
 Two-electron integral symmetry is turned on.
   303 basis functions,   433 primitive gaussians,   333 cartesian basis functions
    26 alpha electrons       25 beta electrons
       nuclear repulsion energy       252.0953033488 Hartrees.
 IExCor= 4336 DFT=T Ex+Corr=M062X ExCW=0 ScaHFX=  0.540000
 ScaDFX=  1.000000  1.000000  1.000000  1.000000 ScalE2=  1.000000  1.000000
 IRadAn=      0 IRanWt=     -1 IRanGd=            0 ICorTp=0
 NAtoms=   17 NActive=   17 NUniq=   17 SFac= 1.00D+00 NAtFMM=   50 NAOKFM=F Big=F
 Leave Link  301 at Wed May  9 00:05:27 2018, MaxMem=  671088640 cpu:       1.0
 (Enter /shared/apps/gaussian/G09_LINUX_LINDA/g09/l302.exe)
 NPDir=0 NMtPBC=     1 NCelOv=     1 NCel=       1 NClECP=     1 NCelD=      1
         NCelK=      1 NCelE2=     1 NClLst=     1 CellRange=     0.0.
 One-electron integrals computed using PRISM.
 NBasis=   303 RedAO= T  NBF=   303
 NBsUse=   303 1.00D-06 NBFU=   303
 Precomputing XC quadrature grid using
 IXCGrd= 2 IRadAn=           0 IRanWt=          -1 IRanGd=           0 AccXCQ= 0.00D+00.
 NRdTot=    1095 NPtTot=      139000 NUsed=      146899 NTot=      146931
 NSgBfM=   333   333   333   333   333 NAtAll=    17    17.
 Leave Link  302 at Wed May  9 00:05:28 2018, MaxMem=  671088640 cpu:      15.6
 (Enter /shared/apps/gaussian/G09_LINUX_LINDA/g09/l303.exe)
 DipDrv:  MaxL=1.
 Leave Link  303 at Wed May  9 00:05:29 2018, MaxMem=  671088640 cpu:       3.3
 (Enter /shared/apps/gaussian/G09_LINUX_LINDA/g09/l401.exe)
 Harris functional with IExCor= 1009 diagonalized for initial guess.
 ExpMin= 4.38D-02 ExpMax= 8.59D+03 ExpMxC= 1.30D+03 IAcc=2 IRadAn=         0 AccDes= 0.00D+00
 HarFok:  IExCor= 1009 AccDes= 0.00D+00 IRadAn=         0 IDoV= 1
 ScaDFX=  1.000000  1.000000  1.000000  1.000000
 FoFCou: FMM=F IPFlag=           0 FMFlag=      100000 FMFlg1=           0
         NFxFlg=           0 DoJE=T BraDBF=F KetDBF=T FulRan=T
         Omega=  0.000000  0.000000  1.000000  0.000000  0.000000 ICntrl=     500 IOpCl=  0
         NMat0=    1 NMatS0=    1 NMatT0=    0 NMatD0=    1 NMtDS0=    0 NMtDT0=    0
         I1Cent=           4 NGrid=           0.
 Petite list used in FoFCou.
 Harris En= -309.190386753596    
 Initial guess orbital symmetries:
 Alpha Orbitals:
       Occupied  (A) (A) (A) (A) (A) (A) (A) (A) (A) (A) (A) (A)
                 (A) (A) (A) (A) (A) (A) (A) (A) (A) (A) (A) (A)
                 (A) (A)
       Virtual   (A) (A) (A) (A) (A) (A) (A) (A) (A) (A) (A) (A)
                 (A) (A) (A) (A) (A) (A) (A) (A) (A) (A) (A) (A)
                 (A) (A) (A) (A) (A) (A) (A) (A) (A) (A) (A) (A)
                 (A) (A) (A) (A) (A) (A) (A) (A) (A) (A) (A) (A)
                 (A) (A) (A) (A) (A) (A) (A) (A) (A) (A) (A) (A)
                 (A) (A) (A) (A) (A) (A) (A) (A) (A) (A) (A) (A)
                 (A) (A) (A) (A) (A) (A) (A) (A) (A) (A) (A) (A)
                 (A) (A) (A) (A) (A) (A) (A) (A) (A) (A) (A) (A)
                 (A) (A) (A) (A) (A) (A) (A) (A) (A) (A) (A) (A)
                 (A) (A) (A) (A) (A) (A) (A) (A) (A) (A) (A) (A)
                 (A) (A) (A) (A) (A) (A) (A) (A) (A) (A) (A) (A)
                 (A) (A) (A) (A) (A) (A) (A) (A) (A) (A) (A) (A)
                 (A) (A) (A) (A) (A) (A) (A) (A) (A) (A) (A) (A)
                 (A) (A) (A) (A) (A) (A) (A) (A) (A) (A) (A) (A)
                 (A) (A) (A) (A) (A) (A) (A) (A) (A) (A) (A) (A)
                 (A) (A) (A) (A) (A) (A) (A) (A) (A) (A) (A) (A)
                 (A) (A) (A) (A) (A) (A) (A) (A) (A) (A) (A) (A)
                 (A) (A) (A) (A) (A) (A) (A) (A) (A) (A) (A) (A)
                 (A) (A) (A) (A) (A) (A) (A) (A) (A) (A) (A) (A)
                 (A) (A) (A) (A) (A) (A) (A) (A) (A) (A) (A) (A)
                 (A) (A) (A) (A) (A) (A) (A) (A) (A) (A) (A) (A)
                 (A) (A) (A) (A) (A) (A) (A) (A) (A) (A) (A) (A)
                 (A) (A) (A) (A) (A) (A) (A) (A) (A) (A) (A) (A)
                 (A)
 Beta  Orbitals:
       Occupied  (A) (A) (A) (A) (A) (A) (A) (A) (A) (A) (A) (A)
                 (A) (A) (A) (A) (A) (A) (A) (A) (A) (A) (A) (A)
                 (A)
       Virtual   (A) (A) (A) (A) (A) (A) (A) (A) (A) (A) (A) (A)
                 (A) (A) (A) (A) (A) (A) (A) (A) (A) (A) (A) (A)
                 (A) (A) (A) (A) (A) (A) (A) (A) (A) (A) (A) (A)
                 (A) (A) (A) (A) (A) (A) (A) (A) (A) (A) (A) (A)
                 (A) (A) (A) (A) (A) (A) (A) (A) (A) (A) (A) (A)
                 (A) (A) (A) (A) (A) (A) (A) (A) (A) (A) (A) (A)
                 (A) (A) (A) (A) (A) (A) (A) (A) (A) (A) (A) (A)
                 (A) (A) (A) (A) (A) (A) (A) (A) (A) (A) (A) (A)
                 (A) (A) (A) (A) (A) (A) (A) (A) (A) (A) (A) (A)
                 (A) (A) (A) (A) (A) (A) (A) (A) (A) (A) (A) (A)
                 (A) (A) (A) (A) (A) (A) (A) (A) (A) (A) (A) (A)
                 (A) (A) (A) (A) (A) (A) (A) (A) (A) (A) (A) (A)
                 (A) (A) (A) (A) (A) (A) (A) (A) (A) (A) (A) (A)
                 (A) (A) (A) (A) (A) (A) (A) (A) (A) (A) (A) (A)
                 (A) (A) (A) (A) (A) (A) (A) (A) (A) (A) (A) (A)
                 (A) (A) (A) (A) (A) (A) (A) (A) (A) (A) (A) (A)
                 (A) (A) (A) (A) (A) (A) (A) (A) (A) (A) (A) (A)
                 (A) (A) (A) (A) (A) (A) (A) (A) (A) (A) (A) (A)
                 (A) (A) (A) (A) (A) (A) (A) (A) (A) (A) (A) (A)
                 (A) (A) (A) (A) (A) (A) (A) (A) (A) (A) (A) (A)
                 (A) (A) (A) (A) (A) (A) (A) (A) (A) (A) (A) (A)
                 (A) (A) (A) (A) (A) (A) (A) (A) (A) (A) (A) (A)
                 (A) (A) (A) (A) (A) (A) (A) (A) (A) (A) (A) (A)
                 (A) (A)
 The electronic state of the initial guess is 2-A.
 Initial guess <Sx>= 0.0000 <Sy>= 0.0000 <Sz>= 0.5000 <S**2>= 0.7500 S= 0.5000
 Leave Link  401 at Wed May  9 00:05:34 2018, MaxMem=  671088640 cpu:      55.3
 (Enter /shared/apps/gaussian/G09_LINUX_LINDA/g09/l502.exe)
 UHF open shell SCF:
 Requested convergence on RMS density matrix=1.00D-08 within 128 cycles.
 Requested convergence on MAX density matrix=1.00D-06.
 Requested convergence on             energy=1.00D-06.
 No special actions if energy rises.
 Using DIIS extrapolation, IDIIS=  1040.
 Integral symmetry usage will be decided dynamically.
       146733 words used for storage of precomputed grid.
 IEnd=      506644 IEndB=      506644 NGot=   671088640 MDV=   670709859
 LenX=   670709859 LenY=   670598529
 Fock matrices will be formed incrementally for  20 cycles.

 Cycle   1  Pass 1  IDiag  1:
 FoFCou: FMM=F IPFlag=           0 FMFlag=      100000 FMFlg1=           0
         NFxFlg=           0 DoJE=F BraDBF=F KetDBF=F FulRan=T
         Omega=  0.000000  0.000000  1.000000  0.000000  0.000000 ICntrl=       0 IOpCl=  1
         NMat0=    1 NMatS0=    1 NMatT0=    0 NMatD0=    1 NMtDS0=    0 NMtDT0=    0
         I1Cent=           0 NGrid=           0.
 Symmetry not used in FoFCou.
 E= -309.059849161336    
 DIIS: error= 2.14D-02 at cycle   1 NSaved=   1.
 NSaved= 1 IEnMin= 1 EnMin= -309.059849161336     IErMin= 1 ErrMin= 2.14D-02
 ErrMax= 2.14D-02 EMaxC= 1.00D-01 BMatC= 9.85D-01 BMatP= 9.85D-01
 IDIUse=3 WtCom= 7.86D-01 WtEn= 2.14D-01
 Coeff-Com:  0.100D+01
 Coeff-En:   0.100D+01
 Coeff:      0.100D+01
 Gap=     0.298 Goal=   None    Shift=    0.000
 Gap=     0.349 Goal=   None    Shift=    0.000
 GapD=    0.298 DampG=1.000 DampE=0.500 DampFc=0.5000 IDamp=-1.
 Damping current iteration by 5.00D-01
 RMSDP=4.06D-03 MaxDP=2.91D-01              OVMax= 2.46D-01

 Cycle   2  Pass 1  IDiag  1:
 RMSU=  1.29D-03    CP:  9.01D-01
 E= -309.169030153763     Delta-E=       -0.109180992427 Rises=F Damp=T
 DIIS: error= 7.83D-03 at cycle   2 NSaved=   2.
 NSaved= 2 IEnMin= 2 EnMin= -309.169030153763     IErMin= 2 ErrMin= 7.83D-03
 ErrMax= 7.83D-03 EMaxC= 1.00D-01 BMatC= 7.84D-02 BMatP= 9.85D-01
 IDIUse=3 WtCom= 9.22D-01 WtEn= 7.83D-02
 Coeff-Com: -0.110D+00 0.111D+01
 Coeff-En:   0.000D+00 0.100D+01
 Coeff:     -0.101D+00 0.110D+01
 Gap=     0.313 Goal=   None    Shift=    0.000
 Gap=     0.335 Goal=   None    Shift=    0.000
 RMSDP=1.44D-03 MaxDP=8.00D-02 DE=-1.09D-01 OVMax= 1.07D-01

 Cycle   3  Pass 1  IDiag  1:
 RMSU=  9.34D-04    CP:  9.29D-01  7.59D-01
 E= -309.274925064905     Delta-E=       -0.105894911143 Rises=F Damp=F
 DIIS: error= 3.19D-03 at cycle   3 NSaved=   3.
 NSaved= 3 IEnMin= 3 EnMin= -309.274925064905     IErMin= 3 ErrMin= 3.19D-03
 ErrMax= 3.19D-03 EMaxC= 1.00D-01 BMatC= 1.88D-02 BMatP= 7.84D-02
 IDIUse=3 WtCom= 9.68D-01 WtEn= 3.19D-02
 Coeff-Com: -0.840D-01 0.346D+00 0.738D+00
 Coeff-En:   0.000D+00 0.000D+00 0.100D+01
 Coeff:     -0.813D-01 0.335D+00 0.746D+00
 Gap=     0.306 Goal=   None    Shift=    0.000
 Gap=     0.268 Goal=   None    Shift=    0.000
 RMSDP=3.82D-04 MaxDP=2.77D-02 DE=-1.06D-01 OVMax= 6.14D-02

 Cycle   4  Pass 1  IDiag  1:
 RMSU=  1.88D-04    CP:  9.15D-01  8.54D-01  8.79D-01
 E= -309.278721572464     Delta-E=       -0.003796507559 Rises=F Damp=F
 DIIS: error= 2.02D-03 at cycle   4 NSaved=   4.
 NSaved= 4 IEnMin= 4 EnMin= -309.278721572464     IErMin= 4 ErrMin= 2.02D-03
 ErrMax= 2.02D-03 EMaxC= 1.00D-01 BMatC= 6.42D-03 BMatP= 1.88D-02
 IDIUse=3 WtCom= 9.80D-01 WtEn= 2.02D-02
 Coeff-Com: -0.318D-01 0.739D-01 0.397D+00 0.561D+00
 Coeff-En:   0.000D+00 0.000D+00 0.716D-01 0.928D+00
 Coeff:     -0.312D-01 0.724D-01 0.391D+00 0.568D+00
 Gap=     0.304 Goal=   None    Shift=    0.000
 Gap=     0.271 Goal=   None    Shift=    0.000
 RMSDP=2.22D-04 MaxDP=2.03D-02 DE=-3.80D-03 OVMax= 9.69D-03

 Cycle   5  Pass 1  IDiag  1:
 RMSU=  6.94D-05    CP:  9.22D-01  8.01D-01  9.71D-01  6.73D-01
 E= -309.280029945881     Delta-E=       -0.001308373417 Rises=F Damp=F
 DIIS: error= 7.03D-04 at cycle   5 NSaved=   5.
 NSaved= 5 IEnMin= 5 EnMin= -309.280029945881     IErMin= 5 ErrMin= 7.03D-04
 ErrMax= 7.03D-04 EMaxC= 1.00D-01 BMatC= 3.63D-04 BMatP= 6.42D-03
 IDIUse=3 WtCom= 9.93D-01 WtEn= 7.03D-03
 Coeff-Com: -0.151D-03-0.131D-01 0.576D-01 0.161D+00 0.795D+00
 Coeff-En:   0.000D+00 0.000D+00 0.000D+00 0.000D+00 0.100D+01
 Coeff:     -0.150D-03-0.130D-01 0.572D-01 0.160D+00 0.796D+00
 Gap=     0.305 Goal=   None    Shift=    0.000
 Gap=     0.273 Goal=   None    Shift=    0.000
 RMSDP=9.51D-05 MaxDP=8.48D-03 DE=-1.31D-03 OVMax= 1.20D-02

 Cycle   6  Pass 1  IDiag  1:
 RMSU=  2.96D-05    CP:  9.26D-01  7.72D-01  1.00D+00  6.99D-01  1.33D+00
 E= -309.280202986148     Delta-E=       -0.000173040266 Rises=F Damp=F
 DIIS: error= 4.23D-04 at cycle   6 NSaved=   6.
 NSaved= 6 IEnMin= 6 EnMin= -309.280202986148     IErMin= 6 ErrMin= 4.23D-04
 ErrMax= 4.23D-04 EMaxC= 1.00D-01 BMatC= 1.63D-04 BMatP= 3.63D-04
 IDIUse=3 WtCom= 9.96D-01 WtEn= 4.23D-03
 Coeff-Com:  0.888D-02-0.246D-01-0.708D-01-0.972D-01 0.383D+00 0.801D+00
 Coeff-En:   0.000D+00 0.000D+00 0.000D+00 0.000D+00 0.000D+00 0.100D+01
 Coeff:      0.884D-02-0.245D-01-0.705D-01-0.967D-01 0.381D+00 0.801D+00
 Gap=     0.306 Goal=   None    Shift=    0.000
 Gap=     0.276 Goal=   None    Shift=    0.000
 RMSDP=5.70D-05 MaxDP=5.27D-03 DE=-1.73D-04 OVMax= 9.44D-03

 Cycle   7  Pass 1  IDiag  1:
 RMSU=  1.19D-05    CP:  9.27D-01  7.55D-01  1.02D+00  7.17D-01  1.63D+00
                    CP:  1.13D+00
 E= -309.280282331375     Delta-E=       -0.000079345227 Rises=F Damp=F
 DIIS: error= 1.85D-04 at cycle   7 NSaved=   7.
 NSaved= 7 IEnMin= 7 EnMin= -309.280282331375     IErMin= 7 ErrMin= 1.85D-04
 ErrMax= 1.85D-04 EMaxC= 1.00D-01 BMatC= 3.39D-05 BMatP= 1.63D-04
 IDIUse=3 WtCom= 9.98D-01 WtEn= 1.85D-03
 Coeff-Com:  0.351D-02-0.626D-02-0.404D-01-0.970D-01-0.691D-01 0.330D+00
 Coeff-Com:  0.879D+00
 Coeff-En:   0.000D+00 0.000D+00 0.000D+00 0.000D+00 0.000D+00 0.000D+00
 Coeff-En:   0.100D+01
 Coeff:      0.350D-02-0.625D-02-0.403D-01-0.968D-01-0.690D-01 0.330D+00
 Coeff:      0.879D+00
 Gap=     0.306 Goal=   None    Shift=    0.000
 Gap=     0.277 Goal=   None    Shift=    0.000
 RMSDP=3.92D-05 MaxDP=3.00D-03 DE=-7.93D-05 OVMax= 5.32D-03

 Cycle   8  Pass 1  IDiag  1:
 RMSU=  9.15D-06    CP:  9.29D-01  7.45D-01  1.03D+00  7.05D-01  1.83D+00
                    CP:  1.34D+00  1.24D+00
 E= -309.280301816000     Delta-E=       -0.000019484625 Rises=F Damp=F
 DIIS: error= 5.71D-05 at cycle   8 NSaved=   8.
 NSaved= 8 IEnMin= 8 EnMin= -309.280301816000     IErMin= 8 ErrMin= 5.71D-05
 ErrMax= 5.71D-05 EMaxC= 1.00D-01 BMatC= 3.88D-06 BMatP= 3.39D-05
 IDIUse=1 WtCom= 1.00D+00 WtEn= 0.00D+00
 Coeff-Com: -0.347D-03 0.194D-02 0.236D-02-0.133D-01-0.495D-01-0.109D-01
 Coeff-Com:  0.225D+00 0.845D+00
 Coeff:     -0.347D-03 0.194D-02 0.236D-02-0.133D-01-0.495D-01-0.109D-01
 Coeff:      0.225D+00 0.845D+00
 Gap=     0.306 Goal=   None    Shift=    0.000
 Gap=     0.277 Goal=   None    Shift=    0.000
 RMSDP=7.80D-06 MaxDP=4.44D-04 DE=-1.95D-05 OVMax= 1.74D-03

 Cycle   9  Pass 1  IDiag  1:
 RMSU=  3.14D-06    CP:  9.29D-01  7.44D-01  1.03D+00  6.99D-01  1.86D+00
                    CP:  1.37D+00  1.41D+00  1.25D+00
 E= -309.280304106341     Delta-E=       -0.000002290341 Rises=F Damp=F
 DIIS: error= 4.13D-05 at cycle   9 NSaved=   9.
 NSaved= 9 IEnMin= 9 EnMin= -309.280304106341     IErMin= 9 ErrMin= 4.13D-05
 ErrMax= 4.13D-05 EMaxC= 1.00D-01 BMatC= 1.32D-06 BMatP= 3.88D-06
 IDIUse=1 WtCom= 1.00D+00 WtEn= 0.00D+00
 Coeff-Com: -0.107D-02 0.213D-02 0.135D-01 0.222D-01 0.979D-02-0.110D+00
 Coeff-Com: -0.217D+00 0.289D+00 0.992D+00
 Coeff:     -0.107D-02 0.213D-02 0.135D-01 0.222D-01 0.979D-02-0.110D+00
 Coeff:     -0.217D+00 0.289D+00 0.992D+00
 Gap=     0.306 Goal=   None    Shift=    0.000
 Gap=     0.277 Goal=   None    Shift=    0.000
 RMSDP=8.36D-06 MaxDP=5.50D-04 DE=-2.29D-06 OVMax= 1.35D-03

 Cycle  10  Pass 1  IDiag  1:
 RMSU=  1.28D-06    CP:  9.29D-01  7.43D-01  1.04D+00  6.91D-01  1.89D+00
                    CP:  1.40D+00  1.52D+00  1.60D+00  1.45D+00
 E= -309.280305132847     Delta-E=       -0.000001026506 Rises=F Damp=F
 DIIS: error= 7.96D-06 at cycle  10 NSaved=  10.
 NSaved=10 IEnMin=10 EnMin= -309.280305132847     IErMin=10 ErrMin= 7.96D-06
 ErrMax= 7.96D-06 EMaxC= 1.00D-01 BMatC= 1.10D-07 BMatP= 1.32D-06
 IDIUse=1 WtCom= 1.00D+00 WtEn= 0.00D+00
 Coeff-Com:  0.916D-04-0.291D-03 0.287D-03 0.122D-02 0.887D-02-0.979D-03
 Coeff-Com: -0.387D-01-0.955D-01-0.439D-01 0.117D+01
 Coeff:      0.916D-04-0.291D-03 0.287D-03 0.122D-02 0.887D-02-0.979D-03
 Coeff:     -0.387D-01-0.955D-01-0.439D-01 0.117D+01
 Gap=     0.306 Goal=   None    Shift=    0.000
 Gap=     0.277 Goal=   None    Shift=    0.000
 RMSDP=3.72D-06 MaxDP=2.99D-04 DE=-1.03D-06 OVMax= 5.69D-04

 Cycle  11  Pass 1  IDiag  1:
 RMSU=  6.37D-07    CP:  9.29D-01  7.42D-01  1.04D+00  6.88D-01  1.90D+00
                    CP:  1.41D+00  1.55D+00  1.69D+00  1.75D+00  1.59D+00
 E= -309.280305286399     Delta-E=       -0.000000153552 Rises=F Damp=F
 DIIS: error= 4.22D-06 at cycle  11 NSaved=  11.
 NSaved=11 IEnMin=11 EnMin= -309.280305286399     IErMin=11 ErrMin= 4.22D-06
 ErrMax= 4.22D-06 EMaxC= 1.00D-01 BMatC= 1.60D-08 BMatP= 1.10D-07
 IDIUse=1 WtCom= 1.00D+00 WtEn= 0.00D+00
 Coeff-Com:  0.166D-03-0.346D-03-0.194D-02-0.323D-02-0.830D-03 0.155D-01
 Coeff-Com:  0.300D-01-0.431D-01-0.153D+00 0.393D-01 0.112D+01
 Coeff:      0.166D-03-0.346D-03-0.194D-02-0.323D-02-0.830D-03 0.155D-01
 Coeff:      0.300D-01-0.431D-01-0.153D+00 0.393D-01 0.112D+01
 Gap=     0.306 Goal=   None    Shift=    0.000
 Gap=     0.277 Goal=   None    Shift=    0.000
 RMSDP=1.53D-06 MaxDP=1.22D-04 DE=-1.54D-07 OVMax= 2.22D-04

 Cycle  12  Pass 1  IDiag  1:
 RMSU=  2.56D-07    CP:  9.29D-01  7.42D-01  1.04D+00  6.87D-01  1.91D+00
                    CP:  1.42D+00  1.55D+00  1.71D+00  1.87D+00  1.91D+00
                    CP:  1.47D+00
 E= -309.280305314281     Delta-E=       -0.000000027882 Rises=F Damp=F
 DIIS: error= 2.07D-06 at cycle  12 NSaved=  12.
 NSaved=12 IEnMin=12 EnMin= -309.280305314281     IErMin=12 ErrMin= 2.07D-06
 ErrMax= 2.07D-06 EMaxC= 1.00D-01 BMatC= 3.77D-09 BMatP= 1.60D-08
 IDIUse=1 WtCom= 1.00D+00 WtEn= 0.00D+00
 Coeff-Com: -0.206D-04 0.505D-04-0.665D-04-0.120D-03-0.123D-02 0.261D-03
 Coeff-Com:  0.632D-02 0.138D-01 0.869D-02-0.197D+00 0.496D-01 0.112D+01
 Coeff:     -0.206D-04 0.505D-04-0.665D-04-0.120D-03-0.123D-02 0.261D-03
 Coeff:      0.632D-02 0.138D-01 0.869D-02-0.197D+00 0.496D-01 0.112D+01
 Gap=     0.306 Goal=   None    Shift=    0.000
 Gap=     0.277 Goal=   None    Shift=    0.000
 RMSDP=5.01D-07 MaxDP=2.28D-05 DE=-2.79D-08 OVMax= 1.16D-04

 Cycle  13  Pass 1  IDiag  1:
 RMSU=  1.13D-07    CP:  9.29D-01  7.42D-01  1.04D+00  6.86D-01  1.91D+00
                    CP:  1.42D+00  1.56D+00  1.71D+00  1.91D+00  2.03D+00
                    CP:  1.75D+00  1.60D+00
 E= -309.280305320798     Delta-E=       -0.000000006518 Rises=F Damp=F
 DIIS: error= 9.81D-07 at cycle  13 NSaved=  13.
 NSaved=13 IEnMin=13 EnMin= -309.280305320798     IErMin=13 ErrMin= 9.81D-07
 ErrMax= 9.81D-07 EMaxC= 1.00D-01 BMatC= 1.10D-09 BMatP= 3.77D-09
 IDIUse=1 WtCom= 1.00D+00 WtEn= 0.00D+00
 Coeff-Com: -0.548D-04 0.118D-03 0.549D-03 0.965D-03-0.100D-03-0.443D-02
 Coeff-Com: -0.758D-02 0.154D-01 0.476D-01-0.595D-01-0.310D+00 0.241D+00
 Coeff-Com:  0.108D+01
 Coeff:     -0.548D-04 0.118D-03 0.549D-03 0.965D-03-0.100D-03-0.443D-02
 Coeff:     -0.758D-02 0.154D-01 0.476D-01-0.595D-01-0.310D+00 0.241D+00
 Coeff:      0.108D+01
 Gap=     0.306 Goal=   None    Shift=    0.000
 Gap=     0.277 Goal=   None    Shift=    0.000
 RMSDP=3.12D-07 MaxDP=1.90D-05 DE=-6.52D-09 OVMax= 7.58D-05

 Cycle  14  Pass 1  IDiag  1:
 RMSU=  5.63D-08    CP:  9.29D-01  7.42D-01  1.04D+00  6.86D-01  1.91D+00
                    CP:  1.42D+00  1.56D+00  1.72D+00  1.93D+00  2.09D+00
                    CP:  1.91D+00  2.02D+00  1.62D+00
 E= -309.280305322667     Delta-E=       -0.000000001869 Rises=F Damp=F
 DIIS: error= 3.03D-07 at cycle  14 NSaved=  14.
 NSaved=14 IEnMin=14 EnMin= -309.280305322667     IErMin=14 ErrMin= 3.03D-07
 ErrMax= 3.03D-07 EMaxC= 1.00D-01 BMatC= 1.79D-10 BMatP= 1.10D-09
 IDIUse=1 WtCom= 1.00D+00 WtEn= 0.00D+00
 Coeff-Com: -0.353D-05 0.790D-05 0.921D-04 0.176D-03 0.762D-04-0.781D-03
 Coeff-Com: -0.236D-02 0.266D-03 0.610D-02 0.275D-01-0.636D-01-0.196D+00
 Coeff-Com:  0.205D+00 0.102D+01
 Coeff:     -0.353D-05 0.790D-05 0.921D-04 0.176D-03 0.762D-04-0.781D-03
 Coeff:     -0.236D-02 0.266D-03 0.610D-02 0.275D-01-0.636D-01-0.196D+00
 Coeff:      0.205D+00 0.102D+01
 Gap=     0.306 Goal=   None    Shift=    0.000
 Gap=     0.277 Goal=   None    Shift=    0.000
 RMSDP=1.22D-07 MaxDP=5.96D-06 DE=-1.87D-09 OVMax= 3.03D-05

 Cycle  15  Pass 1  IDiag  1:
 RMSU=  2.24D-08    CP:  9.29D-01  7.42D-01  1.04D+00  6.86D-01  1.91D+00
                    CP:  1.42D+00  1.56D+00  1.72D+00  1.94D+00  2.11D+00
                    CP:  1.94D+00  2.18D+00  1.97D+00  1.33D+00
 E= -309.280305322920     Delta-E=       -0.000000000253 Rises=F Damp=F
 DIIS: error= 1.22D-07 at cycle  15 NSaved=  15.
 NSaved=15 IEnMin=15 EnMin= -309.280305322920     IErMin=15 ErrMin= 1.22D-07
 ErrMax= 1.22D-07 EMaxC= 1.00D-01 BMatC= 2.21D-11 BMatP= 1.79D-10
 IDIUse=1 WtCom= 1.00D+00 WtEn= 0.00D+00
 Coeff-Com:  0.695D-05-0.148D-04-0.626D-04-0.906D-04 0.147D-04 0.489D-03
 Coeff-Com:  0.785D-03-0.232D-02-0.529D-02 0.132D-01 0.349D-01-0.623D-01
 Coeff-Com: -0.129D+00 0.127D+00 0.102D+01
 Coeff:      0.695D-05-0.148D-04-0.626D-04-0.906D-04 0.147D-04 0.489D-03
 Coeff:      0.785D-03-0.232D-02-0.529D-02 0.132D-01 0.349D-01-0.623D-01
 Coeff:     -0.129D+00 0.127D+00 0.102D+01
 Gap=     0.306 Goal=   None    Shift=    0.000
 Gap=     0.277 Goal=   None    Shift=    0.000
 RMSDP=5.10D-08 MaxDP=4.44D-06 DE=-2.53D-10 OVMax= 8.35D-06

 Cycle  16  Pass 1  IDiag  1:
 RMSU=  1.15D-08    CP:  9.29D-01  7.42D-01  1.04D+00  6.86D-01  1.91D+00
                    CP:  1.42D+00  1.56D+00  1.72D+00  1.94D+00  2.12D+00
                    CP:  1.95D+00  2.21D+00  2.10D+00  1.52D+00  1.22D+00
 E= -309.280305322939     Delta-E=       -0.000000000019 Rises=F Damp=F
 DIIS: error= 3.62D-08 at cycle  16 NSaved=  16.
 NSaved=16 IEnMin=16 EnMin= -309.280305322939     IErMin=16 ErrMin= 3.62D-08
 ErrMax= 3.62D-08 EMaxC= 1.00D-01 BMatC= 2.20D-12 BMatP= 2.21D-11
 IDIUse=1 WtCom= 1.00D+00 WtEn= 0.00D+00
 Coeff-Com: -0.210D-06 0.188D-06-0.658D-05-0.318D-05-0.152D-05 0.509D-04
 Coeff-Com:  0.174D-03-0.165D-03-0.200D-03-0.190D-02 0.537D-02 0.157D-01
 Coeff-Com: -0.194D-01-0.951D-01 0.814D-02 0.109D+01
 Coeff:     -0.210D-06 0.188D-06-0.658D-05-0.318D-05-0.152D-05 0.509D-04
 Coeff:      0.174D-03-0.165D-03-0.200D-03-0.190D-02 0.537D-02 0.157D-01
 Coeff:     -0.194D-01-0.951D-01 0.814D-02 0.109D+01
 Gap=     0.306 Goal=   None    Shift=    0.000
 Gap=     0.277 Goal=   None    Shift=    0.000
 RMSDP=1.25D-08 MaxDP=8.52D-07 DE=-1.91D-11 OVMax= 1.88D-06

 Cycle  17  Pass 1  IDiag  1:
 RMSU=  2.75D-09    CP:  9.29D-01  7.42D-01  1.04D+00  6.86D-01  1.91D+00
                    CP:  1.42D+00  1.56D+00  1.72D+00  1.94D+00  2.12D+00
                    CP:  1.95D+00  2.22D+00  2.11D+00  1.55D+00  1.32D+00
                    CP:  1.28D+00
 E= -309.280305322944     Delta-E=       -0.000000000006 Rises=F Damp=F
 DIIS: error= 1.68D-08 at cycle  17 NSaved=  17.
 NSaved=17 IEnMin=17 EnMin= -309.280305322944     IErMin=17 ErrMin= 1.68D-08
 ErrMax= 1.68D-08 EMaxC= 1.00D-01 BMatC= 1.85D-13 BMatP= 2.20D-12
 IDIUse=1 WtCom= 1.00D+00 WtEn= 0.00D+00
 Coeff-Com: -0.455D-06 0.916D-06 0.231D-05 0.446D-05-0.108D-05-0.200D-04
 Coeff-Com: -0.293D-04 0.109D-03 0.289D-03-0.106D-02-0.165D-02 0.571D-02
 Coeff-Com:  0.654D-02-0.185D-01-0.810D-01 0.156D+00 0.934D+00
 Coeff:     -0.455D-06 0.916D-06 0.231D-05 0.446D-05-0.108D-05-0.200D-04
 Coeff:     -0.293D-04 0.109D-03 0.289D-03-0.106D-02-0.165D-02 0.571D-02
 Coeff:      0.654D-02-0.185D-01-0.810D-01 0.156D+00 0.934D+00
 Gap=     0.306 Goal=   None    Shift=    0.000
 Gap=     0.277 Goal=   None    Shift=    0.000
 RMSDP=2.46D-09 MaxDP=1.19D-07 DE=-5.80D-12 OVMax= 3.82D-07

 SCF Done:  E(UM062X) =  -309.280305323     A.U. after   17 cycles
             Convg  =    0.2465D-08             -V/T =  2.0036
 <Sx>= 0.0000 <Sy>= 0.0000 <Sz>= 0.5000 <S**2>= 0.7598 S= 0.5049
 <L.S>= 0.000000000000E+00
 KE= 3.081604699382D+02 PE=-1.227468296335D+03 EE= 3.579322177247D+02
 Annihilation of the first spin contaminant:
 S**2 before annihilation     0.7598,   after     0.7501
 Leave Link  502 at Wed May  9 00:10:27 2018, MaxMem=  671088640 cpu:    2917.1
 (Enter /shared/apps/gaussian/G09_LINUX_LINDA/g09/l801.exe)
 Range of M.O.s used for correlation:     1   303
 NBasis=   303 NAE=    26 NBE=    25 NFC=     0 NFV=     0
 NROrb=    303 NOA=    26 NOB=    25 NVA=   277 NVB=   278

 **** Warning!!: The largest alpha MO coefficient is  0.59634970D+02


 **** Warning!!: The largest beta MO coefficient is  0.57609855D+02

 Leave Link  801 at Wed May  9 00:10:27 2018, MaxMem=  671088640 cpu:       0.5
 (Enter /shared/apps/gaussian/G09_LINUX_LINDA/g09/l1101.exe)
 Using compressed storage, NAtomX=    17.
 Will process  18 centers per pass.
 Leave Link 1101 at Wed May  9 00:10:32 2018, MaxMem=  671088640 cpu:      49.9
 (Enter /shared/apps/gaussian/G09_LINUX_LINDA/g09/l1102.exe)
 Symmetrizing basis deriv contribution to polar:
 IMax=3 JMax=2 DiffMx= 0.00D+00
 Leave Link 1102 at Wed May  9 00:10:33 2018, MaxMem=  671088640 cpu:       1.9
 (Enter /shared/apps/gaussian/G09_LINUX_LINDA/g09/l1110.exe)
 Forming Gx(P) for the SCF density, NAtomX=    17.
 Integral derivatives from FoFDir/FoFCou, PRISM(SPDF).
 Do as many integral derivatives as possible in FoFDir.
 G2DrvN: MDV=     671088400.
 G2DrvN: will do    18 centers at a time, making    1 passes doing MaxLOS=3.
 Calling FoFCou, ICntrl=  3107 FMM=F I1Cent=   0 AccDes= 0.00D+00.
 FoFCou: FMM=F IPFlag=           0 FMFlag=      100000 FMFlg1=           0
         NFxFlg=           0 DoJE=F BraDBF=F KetDBF=F FulRan=T
         Omega=  0.000000  0.000000  1.000000  0.000000  0.000000 ICntrl=    3107 IOpCl=  1
         NMat0=    1 NMatS0=    1 NMatT0=    0 NMatD0=    1 NMtDS0=    0 NMtDT0=    0
         I1Cent=           0 NGrid=           0.
 Symmetry not used in FoFCou.
 FoFDir/FoFCou used for L=0 through L=3.
 End of G2Drv Frequency-dependent properties file   721 does not exist.
 End of G2Drv Frequency-dependent properties file   722 does not exist.
 Leave Link 1110 at Wed May  9 00:15:32 2018, MaxMem=  671088640 cpu:    2985.0
 (Enter /shared/apps/gaussian/G09_LINUX_LINDA/g09/l1002.exe)
 Minotr:  UHF open shell wavefunction.
          IDoAtm=11111111111111111
          Direct CPHF calculation.
          Differentiating once with respect to nuclear coordinates.
          Requested convergence is 1.0D-06 RMS, and 1.0D-05 maximum.
          Secondary convergence is 1.0D-12 RMS, and 1.0D-12 maximum.
          NewPWx=T KeepS1=F KeepF1=F KeepIn=T MapXYZ=F SortEE=F KeepMc=T.
          MDV=     671088466 using IRadAn=       2.
 Generate precomputed XC quadrature information.
          Solving linear equations simultaneously, MaxMat=       0.
 Integrals replicated using symmetry in FoFDir.
 MinBra= 0 MaxBra= 3 Meth= 1.
 IRaf=       0 NMat=  54 IRICut=     135 DoRegI=T DoRafI=T ISym2E= 2 JSym2E=2.
          There are    54 degrees of freedom in the 1st order CPHF.  IDoFFX=5.
     48 vectors produced by pass  0 Test12= 2.62D-10 1.85D-07 XBig12= 1.59D-01 2.06D-01.
 AX will form    48 AO Fock derivatives at one time.
     48 vectors produced by pass  1 Test12= 2.62D-10 1.85D-07 XBig12= 1.82D-02 3.34D-02.
     48 vectors produced by pass  2 Test12= 2.62D-10 1.85D-07 XBig12= 9.71D-04 5.15D-03.
     48 vectors produced by pass  3 Test12= 2.62D-10 1.85D-07 XBig12= 1.38D-05 4.26D-04.
     48 vectors produced by pass  4 Test12= 2.62D-10 1.85D-07 XBig12= 2.10D-07 6.53D-05.
     24 vectors produced by pass  5 Test12= 2.62D-10 1.85D-07 XBig12= 2.72D-09 4.42D-06.
      4 vectors produced by pass  6 Test12= 2.62D-10 1.85D-07 XBig12= 2.57D-11 4.45D-07.
 Inverted reduced A of dimension   268 with in-core refinement.
 End of Minotr Frequency-dependent properties file   721 does not exist.
 End of Minotr Frequency-dependent properties file   722 does not exist.
 Leave Link 1002 at Wed May  9 00:26:15 2018, MaxMem=  671088640 cpu:    6408.9
 (Enter /shared/apps/gaussian/G09_LINUX_LINDA/g09/l601.exe)
 Copying SCF densities to generalized density rwf, IOpCl= 1 IROHF=0.

 **********************************************************************

            Population analysis using the SCF density.

 **********************************************************************

 Orbital symmetries:
 Alpha Orbitals:
       Occupied  (A) (A) (A) (A) (A) (A) (A) (A) (A) (A) (A) (A)
                 (A) (A) (A) (A) (A) (A) (A) (A) (A) (A) (A) (A)
                 (A) (A)
       Virtual   (A) (A) (A) (A) (A) (A) (A) (A) (A) (A) (A) (A)
                 (A) (A) (A) (A) (A) (A) (A) (A) (A) (A) (A) (A)
                 (A) (A) (A) (A) (A) (A) (A) (A) (A) (A) (A) (A)
                 (A) (A) (A) (A) (A) (A) (A) (A) (A) (A) (A) (A)
                 (A) (A) (A) (A) (A) (A) (A) (A) (A) (A) (A) (A)
                 (A) (A) (A) (A) (A) (A) (A) (A) (A) (A) (A) (A)
                 (A) (A) (A) (A) (A) (A) (A) (A) (A) (A) (A) (A)
                 (A) (A) (A) (A) (A) (A) (A) (A) (A) (A) (A) (A)
                 (A) (A) (A) (A) (A) (A) (A) (A) (A) (A) (A) (A)
                 (A) (A) (A) (A) (A) (A) (A) (A) (A) (A) (A) (A)
                 (A) (A) (A) (A) (A) (A) (A) (A) (A) (A) (A) (A)
                 (A) (A) (A) (A) (A) (A) (A) (A) (A) (A) (A) (A)
                 (A) (A) (A) (A) (A) (A) (A) (A) (A) (A) (A) (A)
                 (A) (A) (A) (A) (A) (A) (A) (A) (A) (A) (A) (A)
                 (A) (A) (A) (A) (A) (A) (A) (A) (A) (A) (A) (A)
                 (A) (A) (A) (A) (A) (A) (A) (A) (A) (A) (A) (A)
                 (A) (A) (A) (A) (A) (A) (A) (A) (A) (A) (A) (A)
                 (A) (A) (A) (A) (A) (A) (A) (A) (A) (A) (A) (A)
                 (A) (A) (A) (A) (A) (A) (A) (A) (A) (A) (A) (A)
                 (A) (A) (A) (A) (A) (A) (A) (A) (A) (A) (A) (A)
                 (A) (A) (A) (A) (A) (A) (A) (A) (A) (A) (A) (A)
                 (A) (A) (A) (A) (A) (A) (A) (A) (A) (A) (A) (A)
                 (A) (A) (A) (A) (A) (A) (A) (A) (A) (A) (A) (A)
                 (A)
 Beta  Orbitals:
       Occupied  (A) (A) (A) (A) (A) (A) (A) (A) (A) (A) (A) (A)
                 (A) (A) (A) (A) (A) (A) (A) (A) (A) (A) (A) (A)
                 (A)
       Virtual   (A) (A) (A) (A) (A) (A) (A) (A) (A) (A) (A) (A)
                 (A) (A) (A) (A) (A) (A) (A) (A) (A) (A) (A) (A)
                 (A) (A) (A) (A) (A) (A) (A) (A) (A) (A) (A) (A)
                 (A) (A) (A) (A) (A) (A) (A) (A) (A) (A) (A) (A)
                 (A) (A) (A) (A) (A) (A) (A) (A) (A) (A) (A) (A)
                 (A) (A) (A) (A) (A) (A) (A) (A) (A) (A) (A) (A)
                 (A) (A) (A) (A) (A) (A) (A) (A) (A) (A) (A) (A)
                 (A) (A) (A) (A) (A) (A) (A) (A) (A) (A) (A) (A)
                 (A) (A) (A) (A) (A) (A) (A) (A) (A) (A) (A) (A)
                 (A) (A) (A) (A) (A) (A) (A) (A) (A) (A) (A) (A)
                 (A) (A) (A) (A) (A) (A) (A) (A) (A) (A) (A) (A)
                 (A) (A) (A) (A) (A) (A) (A) (A) (A) (A) (A) (A)
                 (A) (A) (A) (A) (A) (A) (A) (A) (A) (A) (A) (A)
                 (A) (A) (A) (A) (A) (A) (A) (A) (A) (A) (A) (A)
                 (A) (A) (A) (A) (A) (A) (A) (A) (A) (A) (A) (A)
                 (A) (A) (A) (A) (A) (A) (A) (A) (A) (A) (A) (A)
                 (A) (A) (A) (A) (A) (A) (A) (A) (A) (A) (A) (A)
                 (A) (A) (A) (A) (A) (A) (A) (A) (A) (A) (A) (A)
                 (A) (A) (A) (A) (A) (A) (A) (A) (A) (A) (A) (A)
                 (A) (A) (A) (A) (A) (A) (A) (A) (A) (A) (A) (A)
                 (A) (A) (A) (A) (A) (A) (A) (A) (A) (A) (A) (A)
                 (A) (A) (A) (A) (A) (A) (A) (A) (A) (A) (A) (A)
                 (A) (A) (A) (A) (A) (A) (A) (A) (A) (A) (A) (A)
                 (A) (A)
 The electronic state is 2-A.
 Alpha  occ. eigenvalues --  -19.68503 -19.68246 -10.55628 -10.54739 -10.54239
 Alpha  occ. eigenvalues --  -10.53047  -1.26593  -0.98906  -0.91508  -0.83699
 Alpha  occ. eigenvalues --   -0.73374  -0.68168  -0.61963  -0.58110  -0.55618
 Alpha  occ. eigenvalues --   -0.52550  -0.51052  -0.50857  -0.48207  -0.44644
 Alpha  occ. eigenvalues --   -0.41995  -0.41047  -0.40172  -0.39028  -0.37472
 Alpha  occ. eigenvalues --   -0.29531
 Alpha virt. eigenvalues --    0.01085   0.02159   0.02862   0.03709   0.05228
 Alpha virt. eigenvalues --    0.06028   0.06220   0.07020   0.07478   0.08917
 Alpha virt. eigenvalues --    0.09866   0.10734   0.10762   0.13495   0.15030
 Alpha virt. eigenvalues --    0.15382   0.16767   0.17454   0.18782   0.19810
 Alpha virt. eigenvalues --    0.20400   0.20678   0.21090   0.21756   0.22151
 Alpha virt. eigenvalues --    0.23231   0.24348   0.25868   0.26576   0.27114
 Alpha virt. eigenvalues --    0.28030   0.28736   0.29028   0.29684   0.30234
 Alpha virt. eigenvalues --    0.32380   0.33823   0.36467   0.38530   0.41287
 Alpha virt. eigenvalues --    0.41608   0.42696   0.44974   0.46760   0.48147
 Alpha virt. eigenvalues --    0.48529   0.51073   0.52504   0.54441   0.55614
 Alpha virt. eigenvalues --    0.55970   0.57786   0.58790   0.59123   0.60433
 Alpha virt. eigenvalues --    0.62069   0.63522   0.63758   0.64170   0.64780
 Alpha virt. eigenvalues --    0.67267   0.68129   0.69709   0.70617   0.75810
 Alpha virt. eigenvalues --    0.76617   0.77697   0.79202   0.80697   0.82866
 Alpha virt. eigenvalues --    0.85535   0.85753   0.87720   0.91032   0.93094
 Alpha virt. eigenvalues --    0.94816   0.96617   0.97955   1.01934   1.02503
 Alpha virt. eigenvalues --    1.05084   1.08183   1.09622   1.11676   1.12263
 Alpha virt. eigenvalues --    1.13518   1.15349   1.15555   1.16834   1.17012
 Alpha virt. eigenvalues --    1.18228   1.19221   1.20491   1.21641   1.21878
 Alpha virt. eigenvalues --    1.22923   1.24419   1.25771   1.26671   1.29642
 Alpha virt. eigenvalues --    1.31014   1.32519   1.35200   1.39237   1.39882
 Alpha virt. eigenvalues --    1.40935   1.42877   1.44271   1.45034   1.46261
 Alpha virt. eigenvalues --    1.46879   1.48974   1.52372   1.52669   1.55856
 Alpha virt. eigenvalues --    1.56652   1.57849   1.59580   1.60298   1.61143
 Alpha virt. eigenvalues --    1.61741   1.63783   1.65801   1.67090   1.68608
 Alpha virt. eigenvalues --    1.70580   1.76723   1.78219   1.82609   1.86719
 Alpha virt. eigenvalues --    1.98577   2.03037   2.23069   2.27748   2.28758
 Alpha virt. eigenvalues --    2.38109   2.42144   2.44633   2.47515   2.51169
 Alpha virt. eigenvalues --    2.56049   2.56953   2.58861   2.67883   2.68754
 Alpha virt. eigenvalues --    2.70299   2.73498   2.75759   2.79902   2.81104
 Alpha virt. eigenvalues --    2.83216   2.85929   2.87751   2.91039   2.93020
 Alpha virt. eigenvalues --    2.94421   2.98052   3.00340   3.04446   3.06375
 Alpha virt. eigenvalues --    3.09015   3.12530   3.15256   3.16746   3.17887
 Alpha virt. eigenvalues --    3.21843   3.23402   3.27602   3.29174   3.32083
 Alpha virt. eigenvalues --    3.34057   3.35386   3.37187   3.38441   3.42854
 Alpha virt. eigenvalues --    3.43971   3.48983   3.50629   3.51863   3.54732
 Alpha virt. eigenvalues --    3.57114   3.59537   3.60953   3.63966   3.66858
 Alpha virt. eigenvalues --    3.68350   3.69433   3.71099   3.72817   3.73631
 Alpha virt. eigenvalues --    3.79064   3.82866   3.84968   3.87331   3.89971
 Alpha virt. eigenvalues --    3.90698   3.96150   3.97670   3.99087   4.00313
 Alpha virt. eigenvalues --    4.01577   4.04477   4.07478   4.09912   4.12513
 Alpha virt. eigenvalues --    4.14390   4.15087   4.16587   4.19819   4.21310
 Alpha virt. eigenvalues --    4.22621   4.23380   4.26566   4.28221   4.30224
 Alpha virt. eigenvalues --    4.34337   4.38528   4.40533   4.44560   4.45290
 Alpha virt. eigenvalues --    4.47595   4.49481   4.53045   4.55470   4.58677
 Alpha virt. eigenvalues --    4.60847   4.62397   4.63452   4.66419   4.70039
 Alpha virt. eigenvalues --    4.70458   4.74188   4.76078   4.80550   4.83919
 Alpha virt. eigenvalues --    4.91965   5.04084   5.13757   5.16120   5.19073
 Alpha virt. eigenvalues --    5.21097   5.23469   5.25537   5.34498   5.36906
 Alpha virt. eigenvalues --    5.39988   5.41372   5.45289   5.49581   5.54878
 Alpha virt. eigenvalues --    5.57109   5.58779   5.63197   5.64882   5.65900
 Alpha virt. eigenvalues --    5.67535   6.08612   6.10012   6.44175   6.82284
 Alpha virt. eigenvalues --    6.85805   6.89641   6.91249   7.00745   7.12582
 Alpha virt. eigenvalues --    7.27347   7.30429   7.47485   7.50136   7.80341
 Alpha virt. eigenvalues --    7.93343  24.22845  24.33208  24.41421  24.48693
 Alpha virt. eigenvalues --   49.99551  50.04156
  Beta  occ. eigenvalues --  -19.68391 -19.67390 -10.55109 -10.54767 -10.54226
  Beta  occ. eigenvalues --  -10.53048  -1.25104  -0.96733  -0.90967  -0.82721
  Beta  occ. eigenvalues --   -0.72286  -0.67464  -0.60727  -0.55472  -0.54622
  Beta  occ. eigenvalues --   -0.51505  -0.50558  -0.49474  -0.47320  -0.44128
  Beta  occ. eigenvalues --   -0.41449  -0.40607  -0.39915  -0.36482  -0.35657
  Beta virt. eigenvalues --   -0.07983   0.01085   0.02131   0.02883   0.03720
  Beta virt. eigenvalues --    0.05231   0.06078   0.06341   0.06961   0.07582
  Beta virt. eigenvalues --    0.08957   0.09937   0.10707   0.10858   0.13635
  Beta virt. eigenvalues --    0.15087   0.15451   0.16812   0.17509   0.19030
  Beta virt. eigenvalues --    0.19905   0.20490   0.20940   0.21382   0.21869
  Beta virt. eigenvalues --    0.22375   0.23387   0.24540   0.26052   0.26852
  Beta virt. eigenvalues --    0.27330   0.28301   0.28961   0.29191   0.30037
  Beta virt. eigenvalues --    0.30486   0.32499   0.35911   0.36848   0.38790
  Beta virt. eigenvalues --    0.41509   0.41773   0.42905   0.45205   0.46879
  Beta virt. eigenvalues --    0.48555   0.48696   0.51395   0.52827   0.54609
  Beta virt. eigenvalues --    0.55738   0.56467   0.58036   0.59136   0.59649
  Beta virt. eigenvalues --    0.60633   0.62521   0.63802   0.64418   0.64907
  Beta virt. eigenvalues --    0.65206   0.67577   0.68259   0.69796   0.70697
  Beta virt. eigenvalues --    0.75829   0.76681   0.77786   0.79264   0.80766
  Beta virt. eigenvalues --    0.83016   0.85663   0.85929   0.87805   0.91215
  Beta virt. eigenvalues --    0.93264   0.95046   0.96839   0.98059   1.02253
  Beta virt. eigenvalues --    1.03105   1.05510   1.08191   1.09593   1.11799
  Beta virt. eigenvalues --    1.12432   1.13750   1.15260   1.15751   1.16990
  Beta virt. eigenvalues --    1.17345   1.18390   1.19633   1.20603   1.21630
  Beta virt. eigenvalues --    1.22158   1.23143   1.24882   1.26166   1.26950
  Beta virt. eigenvalues --    1.29802   1.31239   1.33120   1.35782   1.39515
  Beta virt. eigenvalues --    1.40072   1.41200   1.43032   1.44463   1.45373
  Beta virt. eigenvalues --    1.46495   1.46950   1.49670   1.52622   1.53044
  Beta virt. eigenvalues --    1.56172   1.57064   1.58460   1.60105   1.60501
  Beta virt. eigenvalues --    1.61480   1.62230   1.63882   1.65988   1.67503
  Beta virt. eigenvalues --    1.68915   1.71009   1.76976   1.78522   1.83010
  Beta virt. eigenvalues --    1.88681   1.99065   2.03852   2.23150   2.28312
  Beta virt. eigenvalues --    2.28824   2.38493   2.43254   2.45079   2.47795
  Beta virt. eigenvalues --    2.51103   2.56327   2.56982   2.59569   2.68013
  Beta virt. eigenvalues --    2.68812   2.70722   2.74246   2.76418   2.80275
  Beta virt. eigenvalues --    2.81665   2.85046   2.86138   2.87935   2.92183
  Beta virt. eigenvalues --    2.93323   2.94767   2.98153   3.01984   3.05081
  Beta virt. eigenvalues --    3.07361   3.10667   3.14645   3.15448   3.17929
  Beta virt. eigenvalues --    3.18829   3.22826   3.24692   3.29143   3.30356
  Beta virt. eigenvalues --    3.33091   3.34438   3.35677   3.37486   3.38906
  Beta virt. eigenvalues --    3.45652   3.47221   3.51244   3.52483   3.54932
  Beta virt. eigenvalues --    3.55891   3.57789   3.61848   3.62440   3.66071
  Beta virt. eigenvalues --    3.67605   3.69280   3.69839   3.71307   3.73336
  Beta virt. eigenvalues --    3.74870   3.80352   3.83065   3.85624   3.88059
  Beta virt. eigenvalues --    3.90714   3.91945   3.97616   3.98017   3.99900
  Beta virt. eigenvalues --    4.01115   4.01910   4.04939   4.08273   4.10931
  Beta virt. eigenvalues --    4.13303   4.15548   4.15715   4.17272   4.20316
  Beta virt. eigenvalues --    4.22299   4.23539   4.23735   4.26788   4.30076
  Beta virt. eigenvalues --    4.30929   4.34580   4.39878   4.40944   4.45170
  Beta virt. eigenvalues --    4.46243   4.48794   4.50111   4.53273   4.55915
  Beta virt. eigenvalues --    4.59601   4.61120   4.62713   4.63642   4.66766
  Beta virt. eigenvalues --    4.70909   4.71937   4.75124   4.76441   4.81181
  Beta virt. eigenvalues --    4.85537   4.92182   5.05403   5.14308   5.16637
  Beta virt. eigenvalues --    5.19423   5.21493   5.24239   5.26099   5.35258
  Beta virt. eigenvalues --    5.37230   5.40244   5.42583   5.46533   5.51706
  Beta virt. eigenvalues --    5.55263   5.58794   5.59939   5.63273   5.65061
  Beta virt. eigenvalues --    5.65905   5.67580   6.09225   6.10525   6.45054
  Beta virt. eigenvalues --    6.82710   6.87148   6.89771   6.92694   7.03823
  Beta virt. eigenvalues --    7.12811   7.27799   7.32526   7.47524   7.51716
  Beta virt. eigenvalues --    7.82337   7.93619  24.23430  24.33567  24.41607
  Beta virt. eigenvalues --   24.48915  49.99215  50.03787
          Condensed to atoms (all electrons):
              1          2          3          4          5          6
     1  O    8.136867   0.138255  -0.078293   0.011134   0.045698  -0.023194
     2  O    0.138255   7.874518   0.008415   0.016808  -0.012489   0.020540
     3  C   -0.078293   0.008415   5.920686  -0.152372  -0.234074   0.244263
     4  C    0.011134   0.016808  -0.152372   5.594922   0.123802  -0.169852
     5  C    0.045698  -0.012489  -0.234074   0.123802   5.667153  -0.187700
     6  C   -0.023194   0.020540   0.244263  -0.169852  -0.187700   5.708126
     7  H   -0.060108   0.227834   0.019274  -0.003975  -0.028405   0.018296
     8  H    0.094046  -0.048759   0.242529  -0.007840  -0.001791  -0.038305
     9  H    0.000066  -0.002564   0.362143   0.006865   0.004176  -0.020912
    10  H    0.004380   0.002094   0.381839   0.003558  -0.011183   0.007843
    11  H   -0.000003   0.000054   0.000302   0.412977   0.022868  -0.051827
    12  H   -0.000039  -0.000001   0.000586   0.404027  -0.026559  -0.006274
    13  H   -0.000043   0.000016   0.002033   0.395542  -0.018715  -0.006233
    14  H   -0.001564   0.000361  -0.052317   0.008666   0.455032  -0.066547
    15  H   -0.002286  -0.000132  -0.039394  -0.008004   0.451608  -0.042231
    16  H   -0.001896   0.000150  -0.003225  -0.023537  -0.054873   0.433976
    17  H    0.008286  -0.006363  -0.010890  -0.043836  -0.042933   0.442871
              7          8          9         10         11         12
     1  O   -0.060108   0.094046   0.000066   0.004380  -0.000003  -0.000039
     2  O    0.227834  -0.048759  -0.002564   0.002094   0.000054  -0.000001
     3  C    0.019274   0.242529   0.362143   0.381839   0.000302   0.000586
     4  C   -0.003975  -0.007840   0.006865   0.003558   0.412977   0.404027
     5  C   -0.028405  -0.001791   0.004176  -0.011183   0.022868  -0.026559
     6  C    0.018296  -0.038305  -0.020912   0.007843  -0.051827  -0.006274
     7  H    0.567768   0.004810  -0.000018  -0.000330  -0.000069   0.000034
     8  H    0.004810   0.434381  -0.010672  -0.021453  -0.000017  -0.000008
     9  H   -0.000018  -0.010672   0.472520  -0.011844   0.000005  -0.000001
    10  H   -0.000330  -0.021453  -0.011844   0.480368   0.000010  -0.000021
    11  H   -0.000069  -0.000017   0.000005   0.000010   0.537607  -0.024630
    12  H    0.000034  -0.000008  -0.000001  -0.000021  -0.024630   0.549034
    13  H    0.000011  -0.000028  -0.000021   0.000000  -0.024364  -0.037281
    14  H   -0.000086   0.004978  -0.005198  -0.003384  -0.000055   0.002753
    15  H    0.000351  -0.003830   0.004493  -0.004042  -0.000099  -0.000084
    16  H   -0.000874  -0.000533   0.001166   0.000056  -0.004677  -0.008357
    17  H    0.002261   0.003227   0.000558  -0.000193  -0.004896   0.006400
             13         14         15         16         17
     1  O   -0.000043  -0.001564  -0.002286  -0.001896   0.008286
     2  O    0.000016   0.000361  -0.000132   0.000150  -0.006363
     3  C    0.002033  -0.052317  -0.039394  -0.003225  -0.010890
     4  C    0.395542   0.008666  -0.008004  -0.023537  -0.043836
     5  C   -0.018715   0.455032   0.451608  -0.054873  -0.042933
     6  C   -0.006233  -0.066547  -0.042231   0.433976   0.442871
     7  H    0.000011  -0.000086   0.000351  -0.000874   0.002261
     8  H   -0.000028   0.004978  -0.003830  -0.000533   0.003227
     9  H   -0.000021  -0.005198   0.004493   0.001166   0.000558
    10  H    0.000000  -0.003384  -0.004042   0.000056  -0.000193
    11  H   -0.024364  -0.000055  -0.000099  -0.004677  -0.004896
    12  H   -0.037281   0.002753  -0.000084  -0.008357   0.006400
    13  H    0.550583  -0.001379   0.002171   0.006696  -0.008179
    14  H   -0.001379   0.536396  -0.036937  -0.007376   0.006160
    15  H    0.002171  -0.036937   0.505153   0.005836  -0.006756
    16  H    0.006696  -0.007376   0.005836   0.520629  -0.041612
    17  H   -0.008179   0.006160  -0.006756  -0.041612   0.514597
 Mulliken atomic charges:
              1
     1  O   -0.271305
     2  O   -0.218736
     3  C   -0.611504
     4  C   -0.568886
     5  C   -0.151615
     6  C   -0.262840
     7  H    0.253226
     8  H    0.349265
     9  H    0.199238
    10  H    0.172302
    11  H    0.136814
    12  H    0.140421
    13  H    0.139191
    14  H    0.160498
    15  H    0.174183
    16  H    0.178451
    17  H    0.181298
 Sum of Mulliken atomic charges =   0.00000
 Mulliken charges with hydrogens summed into heavy atoms:
              1
     1  O    0.077960
     2  O    0.034491
     3  C   -0.239964
     4  C   -0.152461
     5  C    0.183066
     6  C    0.096908
 Sum of Mulliken charges with hydrogens summed into heavy atoms =   0.00000
          Atomic-Atomic Spin Densities.
              1          2          3          4          5          6
     1  O    0.525083  -0.067307  -0.136372  -0.009010   0.024495  -0.000746
     2  O   -0.067307   0.069126   0.038279   0.002472  -0.006991   0.001071
     3  C   -0.136372   0.038279   0.787573   0.006999  -0.067620  -0.008179
     4  C   -0.009010   0.002472   0.006999   0.001119  -0.008717  -0.000217
     5  C    0.024495  -0.006991  -0.067620  -0.008717  -0.017469   0.019193
     6  C   -0.000746   0.001071  -0.008179  -0.000217   0.019193   0.012826
     7  H    0.005404  -0.002825  -0.003135  -0.000068   0.001781  -0.001020
     8  H   -0.040256   0.026825   0.113590   0.007468  -0.028152   0.009742
     9  H    0.011772  -0.006849  -0.022261  -0.002062   0.011771   0.001216
[...]
    13  H   -0.000035   0.000019   0.001935   0.396253  -0.018572  -0.006887
    14  H   -0.001579   0.000310  -0.051111   0.007463   0.454106  -0.064358
    15  H   -0.002094  -0.000092  -0.040793  -0.007084   0.453244  -0.043751
    16  H   -0.001729   0.000350  -0.002557  -0.023322  -0.055136   0.433878
    17  H    0.008216  -0.006565  -0.011161  -0.043691  -0.043811   0.443247
              7          8          9         10         11         12
     1  O   -0.059879   0.048593   0.000663   0.004975  -0.000002  -0.000033
     2  O    0.228378  -0.043742  -0.002277   0.002029   0.000057  -0.000005
     3  C    0.018456   0.268960   0.364208   0.381952   0.000236   0.000646
     4  C   -0.003973  -0.007285   0.006910   0.003641   0.412846   0.404193
     5  C   -0.027016  -0.005311   0.001750  -0.010683   0.022961  -0.026475
     6  C    0.017796  -0.038074  -0.020325   0.007948  -0.051806  -0.006445
     7  H    0.566991   0.003762  -0.000028  -0.000326  -0.000073   0.000035
     8  H    0.003762   0.455885  -0.014042  -0.023497  -0.000018  -0.000007
     9  H   -0.000028  -0.014042   0.478454  -0.011234   0.000005   0.000000
    10  H   -0.000326  -0.023497  -0.011234   0.483415   0.000010  -0.000020
    11  H   -0.000073  -0.000018   0.000005   0.000010   0.538345  -0.024677
    12  H    0.000035  -0.000007   0.000000  -0.000020  -0.024677   0.548658
    13  H    0.000009  -0.000041  -0.000021  -0.000001  -0.024481  -0.037179
    14  H   -0.000076   0.005738  -0.005542  -0.003417  -0.000052   0.002735
    15  H    0.000333  -0.004444   0.004656  -0.004064  -0.000102  -0.000090
    16  H   -0.000917  -0.000841   0.001191   0.000053  -0.004689  -0.008368
    17  H    0.002247   0.003733   0.000543  -0.000184  -0.004924   0.006428
             13         14         15         16         17
     1  O   -0.000035  -0.001579  -0.002094  -0.001729   0.008216
     2  O    0.000019   0.000310  -0.000092   0.000350  -0.006565
     3  C    0.001935  -0.051111  -0.040793  -0.002557  -0.011161
     4  C    0.396253   0.007463  -0.007084  -0.023322  -0.043691
     5  C   -0.018572   0.454106   0.453244  -0.055136  -0.043811
     6  C   -0.006887  -0.064358  -0.043751   0.433878   0.443247
     7  H    0.000009  -0.000076   0.000333  -0.000917   0.002247
     8  H   -0.000041   0.005738  -0.004444  -0.000841   0.003733
     9  H   -0.000021  -0.005542   0.004656   0.001191   0.000543
    10  H   -0.000001  -0.003417  -0.004064   0.000053  -0.000184
    11  H   -0.024481  -0.000052  -0.000102  -0.004689  -0.004924
    12  H   -0.037179   0.002735  -0.000090  -0.008368   0.006428
    13  H    0.550431  -0.001360   0.002164   0.006708  -0.008248
    14  H   -0.001360   0.536761  -0.037210  -0.007394   0.006221
    15  H    0.002164  -0.037210   0.507045   0.005876  -0.006888
    16  H    0.006708  -0.007394   0.005876   0.521707  -0.042504
    17  H   -0.008248   0.006221  -0.006888  -0.042504   0.518351
 Mulliken atomic charges:
              1
     1  O   -0.260888
     2  O   -0.207949
     3  C   -0.615465
     4  C   -0.570017
     5  C   -0.163003
     6  C   -0.257104
     7  H    0.254280
     8  H    0.350632
     9  H    0.195089
    10  H    0.169404
    11  H    0.136365
    12  H    0.140604
    13  H    0.139306
    14  H    0.158765
    15  H    0.173296
    16  H    0.177695
    17  H    0.178990
 Sum of Mulliken atomic charges =   0.00000
 Mulliken charges with hydrogens summed into heavy atoms:
              1
     1  O    0.089744
     2  O    0.046331
     3  C   -0.250972
     4  C   -0.153743
     5  C    0.169058
     6  C    0.099581
 Sum of Mulliken charges with hydrogens summed into heavy atoms =   0.00000
          Atomic-Atomic Spin Densities.
              1          2          3          4          5          6
     1  O    0.597293  -0.078861  -0.130319  -0.009930   0.025526  -0.003068
     2  O   -0.078861   0.091072   0.037931   0.002730  -0.007470   0.001764
     3  C   -0.130319   0.037931   0.700929   0.006010  -0.061088  -0.004511
     4  C   -0.009930   0.002730   0.006010   0.002255  -0.008511  -0.001231
     5  C    0.025526  -0.007470  -0.061088  -0.008511  -0.011341   0.014751
     6  C   -0.003068   0.001764  -0.004511  -0.001231   0.014751   0.013154
     7  H    0.005646  -0.002580  -0.002980  -0.000040   0.001658  -0.000970
     8  H   -0.052180   0.031567   0.111330   0.008735  -0.030856   0.011873
     9  H    0.012829  -0.007699  -0.019760  -0.002436   0.011608   0.000170
    10  H    0.003760  -0.001374  -0.013346  -0.000465   0.009500  -0.000012
    11  H    0.000011  -0.000011   0.000012  -0.000783   0.000033   0.000517
    12  H    0.000009  -0.000001  -0.000480   0.000351   0.000843  -0.000289
    13  H    0.000017  -0.000003  -0.000107   0.000469   0.000176  -0.000502
    14  H   -0.002555   0.001011  -0.011395   0.008229   0.003715  -0.008615
    15  H    0.002131  -0.000509  -0.007156  -0.002997   0.006758   0.003595
    16  H    0.001316  -0.001031  -0.002086  -0.000883   0.002414  -0.000163
    17  H   -0.002511   0.001032   0.001716   0.002094  -0.001405  -0.000644
              7          8          9         10         11         12
     1  O    0.005646  -0.052180   0.012829   0.003760   0.000011   0.000009
     2  O   -0.002580   0.031567  -0.007699  -0.001374  -0.000011  -0.000001
     3  C   -0.002980   0.111330  -0.019760  -0.013346   0.000012  -0.000480
     4  C   -0.000040   0.008735  -0.002436  -0.000465  -0.000783   0.000351
     5  C    0.001658  -0.030856   0.011608   0.009500   0.000033   0.000843
     6  C   -0.000970   0.011873   0.000170  -0.000012   0.000517  -0.000289
     7  H   -0.002967  -0.001510   0.000247   0.000059   0.000003  -0.000002
     8  H   -0.001510  -0.077064  -0.004741   0.000086   0.000001  -0.000001
     9  H    0.000247  -0.004741  -0.023286   0.006107   0.000002   0.000000
    10  H    0.000059   0.000086   0.006107  -0.027712   0.000000   0.000001
    11  H    0.000003   0.000001   0.000002   0.000000  -0.000168   0.000103
    12  H   -0.000002  -0.000001   0.000000   0.000001   0.000103  -0.001397
    13  H   -0.000002  -0.000013   0.000003   0.000002   0.000040   0.000088
    14  H   -0.000054   0.001621  -0.002580  -0.001944  -0.000014  -0.000077
    15  H    0.000014  -0.000660   0.000165   0.000924   0.000009  -0.000018
    16  H   -0.000069  -0.000632   0.000200   0.000079   0.000065  -0.000006
    17  H   -0.000174   0.000478  -0.000192  -0.000033  -0.000028  -0.000010
             13         14         15         16         17
     1  O    0.000017  -0.002555   0.002131   0.001316  -0.002511
     2  O   -0.000003   0.001011  -0.000509  -0.001031   0.001032
     3  C   -0.000107  -0.011395  -0.007156  -0.002086   0.001716
     4  C    0.000469   0.008229  -0.002997  -0.000883   0.002094
     5  C    0.000176   0.003715   0.006758   0.002414  -0.001405
     6  C   -0.000502  -0.008615   0.003595  -0.000163  -0.000644
     7  H   -0.000002  -0.000054   0.000014  -0.000069  -0.000174
     8  H   -0.000013   0.001621  -0.000660  -0.000632   0.000478
     9  H    0.000003  -0.002580   0.000165   0.000200  -0.000192
    10  H    0.000002  -0.001944   0.000924   0.000079  -0.000033
    11  H    0.000040  -0.000014   0.000009   0.000065  -0.000028
    12  H    0.000088  -0.000077  -0.000018  -0.000006  -0.000010
    13  H   -0.000273  -0.000093   0.000083  -0.000008  -0.000061
    14  H   -0.000093   0.051822  -0.004845  -0.001085   0.000362
    15  H    0.000083  -0.004845   0.008550   0.000166  -0.000431
    16  H   -0.000008  -0.001085   0.000166  -0.001206  -0.000948
    17  H   -0.000061   0.000362  -0.000431  -0.000948  -0.001056
 Mulliken atomic spin densities:
              1
     1  O    0.369114
     2  O    0.067568
     3  C    0.604702
     4  C    0.003596
     5  C   -0.043689
     6  C    0.025818
     7  H   -0.003722
     8  H   -0.001967
     9  H   -0.029367
    10  H   -0.024368
    11  H   -0.000209
    12  H   -0.000887
    13  H   -0.000182
    14  H    0.033504
    15  H    0.005780
    16  H   -0.003878
    17  H   -0.001812
 Sum of Mulliken atomic spin densities =   1.00000
 Electronic spatial extent (au):  <R**2>=            908.2630
 Charge=              0.0000 electrons
 Dipole moment (field-independent basis, Debye):
    X=             -2.6701    Y=              0.1549    Z=             -0.6606  Tot=              2.7550
 Quadrupole moment (field-independent basis, Debye-Ang):
   XX=            -47.6200   YY=            -35.5376   ZZ=            -40.3486
   XY=              0.9571   XZ=             -0.8680   YZ=              0.8269
 Traceless Quadrupole moment (field-independent basis, Debye-Ang):
   XX=             -6.4513   YY=              5.6311   ZZ=              0.8202
   XY=              0.9571   XZ=             -0.8680   YZ=              0.8269
 Octapole moment (field-independent basis, Debye-Ang**2):
  XXX=             -4.7415  YYY=             -9.3339  ZZZ=              0.1980  XYY=              8.9719
  XXY=              3.2981  XXZ=             -1.2837  XZZ=              2.3180  YZZ=             -0.8792
  YYZ=             -0.3999  XYZ=              0.5763
 Hexadecapole moment (field-independent basis, Debye-Ang**3):
 XXXX=           -848.1574 YYYY=           -275.2525 ZZZZ=            -95.8535 XXXY=             -0.4841
 XXXZ=              3.8465 YYYX=            -12.0695 YYYZ=              7.7845 ZZZX=             -2.2135
 ZZZY=              3.1389 XXYY=           -178.6020 XXZZ=           -150.6315 YYZZ=            -65.4382
 XXYZ=             -1.9225 YYXZ=              0.8461 ZZXY=             -3.9072
 N-N= 2.521149353467D+02 E-N=-1.832693529287D+03  KE= 4.609878485662D+02
                          Isotropic Fermi Contact Couplings
        Atom                 a.u.       MegaHertz       Gauss      10(-4) cm-1
     1  O(17)              0.09871     -59.83472     -21.35052     -19.95871
     2  O(17)              0.00871      -5.28266      -1.88498      -1.76211
     3  C(13)              0.14969     168.28479      60.04820      56.13376
     4  C(13)             -0.00113      -1.27494      -0.45493      -0.42527
     5  C(13)             -0.01571     -17.66591      -6.30363      -5.89271
     6  C(13)              0.00805       9.04990       3.22923       3.01872
     7  H(1)              -0.00128      -5.74254      -2.04908      -1.91550
     8  H(1)              -0.02975    -132.96825     -47.44638     -44.35343
     9  H(1)              -0.00598     -26.73160      -9.53850      -8.91670
    10  H(1)              -0.00561     -25.07295      -8.94665      -8.36344
    11  H(1)              -0.00008      -0.35783      -0.12768      -0.11936
    12  H(1)               0.00001       0.04802       0.01714       0.01602
    13  H(1)              -0.00001      -0.04305      -0.01536      -0.01436
    14  H(1)               0.01926      86.09342      30.72027      28.71767
    15  H(1)               0.00283      12.62917       4.50640       4.21264
    16  H(1)              -0.00014      -0.63570      -0.22683      -0.21205
    17  H(1)              -0.00017      -0.74752      -0.26673      -0.24935
 --------------------------------------------------------
       Center         ----  Spin Dipole Couplings  ----
                      3XX-RR        3YY-RR        3ZZ-RR
 --------------------------------------------------------
     1   Atom        0.041856      0.285724     -0.327579
     2   Atom        0.039990      0.136512     -0.176502
     3   Atom       -0.014731      0.035466     -0.020735
     4   Atom        0.002160     -0.000285     -0.001876
     5   Atom        0.021274     -0.010775     -0.010499
     6   Atom        0.000849      0.009380     -0.010229
     7   Atom       -0.001081      0.011777     -0.010695
     8   Atom        0.005234      0.067118     -0.072352
     9   Atom       -0.021592     -0.020866      0.042458
    10   Atom       -0.023154      0.043261     -0.020106
    11   Atom        0.001128      0.000211     -0.001339
    12   Atom        0.002160     -0.000407     -0.001753
    13   Atom        0.001934     -0.000681     -0.001253
    14   Atom        0.010111     -0.004763     -0.005348
    15   Atom        0.006327     -0.006418      0.000091
    16   Atom        0.001046      0.001478     -0.002524
    17   Atom        0.003984      0.002350     -0.006333
 --------------------------------------------------------
                        XY            XZ            YZ
 --------------------------------------------------------
     1   Atom       -1.159157      0.827400     -0.928093
     2   Atom       -0.233864      0.110116     -0.147302
     3   Atom       -0.356084      0.327926     -0.348408
     4   Atom        0.001751      0.000651     -0.000352
     5   Atom       -0.008016      0.010176     -0.005280
     6   Atom        0.009431      0.001102      0.001455
     7   Atom        0.008613      0.005251      0.008659
     8   Atom       -0.155395      0.078928     -0.090303
     9   Atom       -0.022963     -0.015130      0.007418
    10   Atom        0.011468      0.022349      0.015864
    11   Atom        0.001567      0.000146     -0.000048
    12   Atom        0.001670      0.000547      0.000037
    13   Atom        0.001424     -0.001044     -0.000724
    14   Atom       -0.002222      0.002594     -0.003140
    15   Atom       -0.001396     -0.009084     -0.000486
    16   Atom        0.004005      0.003812      0.003615
    17   Atom        0.006024     -0.000814     -0.002410
 --------------------------------------------------------


 ---------------------------------------------------------------------------------
              Anisotropic Spin Dipole Couplings in Principal Axis System
 ---------------------------------------------------------------------------------

       Atom             a.u.   MegaHertz   Gauss  10(-4) cm-1        Axes

              Baa    -1.0043    72.674    25.932    24.241  0.5334  0.7544  0.3825
     1 O(17)  Bbb    -0.9906    71.680    25.577    23.910 -0.6069  0.0264  0.7943
              Bcc     1.9950  -144.354   -51.509   -48.151 -0.5892  0.6558 -0.4720
 
              Baa    -0.2370    17.152     6.120     5.721 -0.1298  0.2923  0.9475
     2 O(17)  Bbb    -0.1499    10.849     3.871     3.619  0.7916  0.6059 -0.0785
              Bcc     0.3870   -28.001    -9.992    -9.340 -0.5971  0.7398 -0.3101
 
              Baa    -0.3475   -46.625   -16.637   -15.552  0.8222  0.4615 -0.3332
     3 C(13)  Bbb    -0.3421   -45.913   -16.383   -15.315 -0.0559  0.6480  0.7595
              Bcc     0.6896    92.538    33.020    30.867 -0.5664  0.6059 -0.5587
 
              Baa    -0.0023    -0.303    -0.108    -0.101 -0.2899  0.4109  0.8644
     4 C(13)  Bbb    -0.0008    -0.114    -0.041    -0.038 -0.3544  0.7929 -0.4957
              Bcc     0.0031     0.417     0.149     0.139  0.8890  0.4501  0.0843
 
              Baa    -0.0160    -2.148    -0.766    -0.716 -0.0624  0.6602  0.7485
     5 C(13)  Bbb    -0.0105    -1.412    -0.504    -0.471  0.3705  0.7117 -0.5969
              Bcc     0.0265     3.559     1.270     1.187  0.9268 -0.2401  0.2890
 
              Baa    -0.0104    -1.390    -0.496    -0.464 -0.0606 -0.0446  0.9972
     6 C(13)  Bbb    -0.0052    -0.702    -0.251    -0.234  0.8387 -0.5440  0.0266
              Bcc     0.0156     2.093     0.747     0.698  0.5412  0.8379  0.0703
 
              Baa    -0.0141    -7.545    -2.692    -2.517 -0.2199 -0.2426  0.9449
     7 H(1)   Bbb    -0.0053    -2.847    -1.016    -0.950  0.8735 -0.4802  0.0800
              Bcc     0.0195    10.391     3.708     3.466  0.4343  0.8430  0.3175
 
              Baa    -0.1243   -66.319   -23.664   -22.122  0.7807  0.4123 -0.4695
     8 H(1)   Bbb    -0.1163   -62.028   -22.133   -20.690  0.1903  0.5588  0.8072
              Bcc     0.2406   128.347    45.798    42.812 -0.5952  0.7196 -0.3578
 
              Baa    -0.0446   -23.784    -8.487    -7.933  0.7272  0.6830  0.0682
     9 H(1)   Bbb    -0.0037    -1.951    -0.696    -0.651 -0.6322  0.7052 -0.3209
              Bcc     0.0482    25.734     9.183     8.584 -0.2673  0.1902  0.9447
 
              Baa    -0.0441   -23.534    -8.397    -7.850  0.7212  0.0310 -0.6920
    10 H(1)   Bbb    -0.0067    -3.600    -1.285    -1.201  0.6537 -0.3609  0.6651
              Bcc     0.0509    27.134     9.682     9.051  0.2291  0.9321  0.2805
 
              Baa    -0.0014    -0.736    -0.263    -0.245 -0.1923  0.2187  0.9567
    11 H(1)   Bbb    -0.0009    -0.493    -0.176    -0.165 -0.5675  0.7706 -0.2902
              Bcc     0.0023     1.229     0.439     0.410  0.8006  0.5987  0.0241
 
              Baa    -0.0019    -0.999    -0.357    -0.333 -0.2242  0.2314  0.9467
    12 H(1)   Bbb    -0.0012    -0.621    -0.221    -0.207 -0.3873  0.8702 -0.3044
              Bcc     0.0030     1.620     0.578     0.540  0.8943  0.4349  0.1055
 
              Baa    -0.0017    -0.933    -0.333    -0.311  0.0368  0.5269  0.8491
    13 H(1)   Bbb    -0.0012    -0.632    -0.226    -0.211 -0.4908  0.7497 -0.4439
              Bcc     0.0029     1.565     0.558     0.522  0.8705  0.4004 -0.2863
 
              Baa    -0.0082    -4.385    -1.565    -1.463 -0.0255  0.6632  0.7480
    14 H(1)   Bbb    -0.0028    -1.489    -0.531    -0.497  0.2534  0.7281 -0.6369
              Bcc     0.0110     5.874     2.096     1.959  0.9670 -0.1734  0.1866
 
              Baa    -0.0076    -4.072    -1.453    -1.358  0.4301  0.7152  0.5509
    15 H(1)   Bbb    -0.0052    -2.785    -0.994    -0.929 -0.3891  0.6975 -0.6017
              Bcc     0.0129     6.857     2.447     2.287  0.8146 -0.0444 -0.5783
 
              Baa    -0.0052    -2.768    -0.988    -0.923 -0.3810 -0.2533  0.8892
    16 H(1)   Bbb    -0.0027    -1.454    -0.519    -0.485 -0.6832  0.7251 -0.0861
              Bcc     0.0079     4.221     1.506     1.408  0.6230  0.6403  0.4494
 
              Baa    -0.0070    -3.750    -1.338    -1.251 -0.0973  0.3059  0.9471
    17 H(1)   Bbb    -0.0025    -1.347    -0.481    -0.449 -0.6694  0.6841 -0.2897
              Bcc     0.0096     5.097     1.819     1.700  0.7365  0.6622 -0.1382
 

 ---------------------------------------------------------------------------------

 No NMR shielding tensors so no spin-rotation constants.
 Leave Link  601 at Wed May  9 00:38:57 2018, MaxMem=  671088640 cpu:      21.1
 (Enter /shared/apps/gaussian/G09_LINUX_LINDA/g09/l9999.exe)
 1\1\GINC-COMPUTE-3-045\FTS\UM062X\6-311+G(2df,2p)\C4H11O2(2)\ROOT\09-M
 ay-2018\0\\#p m062x/6-311+g(2df,2p) opt=(ts,calcfc,noeigentest,ModRedu
 n)\\Gaussian input prepared by ASE\\0,2\O,2.5199844572,0.1597281203,-0
 .7362155714\O,2.7965515086,0.6042033101,0.5438815655\C,0.8123932399,-1
 .5429555677,-0.0963125306\C,-1.9663920855,1.1669042553,0.0964902456\C,
 -0.5135096402,-0.8721540624,-0.3234414976\C,-0.5764887017,0.555988502,
 0.2179793531\H,2.1766278653,1.3324592591,0.6746795557\H,1.7443779056,-
 0.7156040086,-0.5588206591\H,1.1616688456,-1.5748785015,0.9364353648\H
 ,0.9906417813,-2.4659203508,-0.6425142508\H,-1.9841421155,2.1899006569
 ,0.4696560421\H,-2.6968768075,0.5900098992,0.6629753764\H,-2.293378390
 7,1.1874562017,-0.9440337527\H,-1.3032958023,-1.4664996422,0.155040279
 9\H,-0.7478571686,-0.8691177471,-1.3908624769\H,-0.264064376,0.5543597
 886,1.2668116515\H,0.1437594844,1.1661198868,-0.3315486956\\Version=EM
 64L-G09RevB.01\State=2-A\HF=-309.2800397\S2=0.760105\S2-1=0.\S2A=0.750
 05\RMSD=3.085e-09\RMSF=4.676e-04\Dipole=-1.0508283,0.0181884,0.2650815
 \Quadrupole=-4.8363813,3.8419539,0.9944274,0.2903901,0.7731745,1.22512
 88\PG=C01 [X(C4H11O2)]\\@


 ERWIN WITH HIS PSI CAN DO
 CALCULATIONS QUITE A FEW.
 BUT ONE THING HAS NOT BEEN SEEN
 JUST WHAT DOES PSI REALLY MEAN.
 -- WALTER HUCKEL, TRANS. BY FELIX BLOCH
 Job cpu time:  0 days  5 hours 33 minutes 50.2 seconds.
 File lengths (MBytes):  RWF=    299 Int=      0 D2E=      0 Chk=     10 Scr=      1
 Normal termination of Gaussian 09 at Wed May  9 00:38:57 2018.
