 Entering Gaussian System, Link 0=g09
 Initial command:
 /shared/apps/gaussian/G09_LINUX_LINDA/g09/l1.exe /home/harms.n/Code/AutoTST/Gau-4360.inp -scrdir=/home/harms.n/Code/AutoTST/
 Entering Link 1 = /shared/apps/gaussian/G09_LINUX_LINDA/g09/l1.exe PID=      4361.
  
 Copyright (c) 1988,1990,1992,1993,1995,1998,2003,2009,2010,
            Gaussian, Inc.  All Rights Reserved.
  
 This is part of the Gaussian(R) 09 program.  It is based on
 the Gaussian(R) 03 system (copyright 2003, Gaussian, Inc.),
 the Gaussian(R) 98 system (copyright 1998, Gaussian, Inc.),
 the Gaussian(R) 94 system (copyright 1995, Gaussian, Inc.),
 the Gaussian 92(TM) system (copyright 1992, Gaussian, Inc.),
 the Gaussian 90(TM) system (copyright 1990, Gaussian, Inc.),
 the Gaussian 88(TM) system (copyright 1988, Gaussian, Inc.),
 the Gaussian 86(TM) system (copyright 1986, Carnegie Mellon
 University), and the Gaussian 82(TM) system (copyright 1983,
 Carnegie Mellon University). Gaussian is a federally registered
 trademark of Gaussian, Inc.
  
 This software contains proprietary and confidential information,
 including trade secrets, belonging to Gaussian, Inc.
  
 This software is provided under written license and may be
 used, copied, transmitted, or stored only in accord with that
 written license.
  
 The following legend is applicable only to US Government
 contracts under FAR:
  
                    RESTRICTED RIGHTS LEGEND
  
 Use, reproduction and disclosure by the US Government is
 subject to restrictions as set forth in subparagraphs (a)
 and (c) of the Commercial Computer Software - Restricted
 Rights clause in FAR 52.227-19.
  
 Gaussian, Inc.
 340 Quinnipiac St., Bldg. 40, Wallingford CT 06492
  
  
 ---------------------------------------------------------------
 Warning -- This program may not be used in any manner that
 competes with the business of Gaussian, Inc. or will provide
 assistance to any competitor of Gaussian, Inc.  The licensee
 of this program is prohibited from giving any competitor of
 Gaussian, Inc. access to this program.  By using this program,
 the user acknowledges that Gaussian, Inc. is engaged in the
 business of creating and licensing software in the field of
 computational chemistry and represents and warrants to the
 licensee that it is not a competitor of Gaussian, Inc. and that
 it will not use this program in any manner prohibited above.
 ---------------------------------------------------------------
  

 Cite this work as:
 Gaussian 09, Revision B.01,
 M. J. Frisch, G. W. Trucks, H. B. Schlegel, G. E. Scuseria, 
 M. A. Robb, J. R. Cheeseman, G. Scalmani, V. Barone, B. Mennucci, 
 G. A. Petersson, H. Nakatsuji, M. Caricato, X. Li, H. P. Hratchian, 
 A. F. Izmaylov, J. Bloino, G. Zheng, J. L. Sonnenberg, M. Hada, 
 M. Ehara, K. Toyota, R. Fukuda, J. Hasegawa, M. Ishida, T. Nakajima, 
 Y. Honda, O. Kitao, H. Nakai, T. Vreven, J. A. Montgomery, Jr., 
 J. E. Peralta, F. Ogliaro, M. Bearpark, J. J. Heyd, E. Brothers, 
 K. N. Kudin, V. N. Staroverov, T. Keith, R. Kobayashi, J. Normand, 
 K. Raghavachari, A. Rendell, J. C. Burant, S. S. Iyengar, J. Tomasi, 
 M. Cossi, N. Rega, J. M. Millam, M. Klene, J. E. Knox, J. B. Cross, 
 V. Bakken, C. Adamo, J. Jaramillo, R. Gomperts, R. E. Stratmann, 
 O. Yazyev, A. J. Austin, R. Cammi, C. Pomelli, J. W. Ochterski, 
 R. L. Martin, K. Morokuma, V. G. Zakrzewski, G. A. Voth, 
 P. Salvador, J. J. Dannenberg, S. Dapprich, A. D. Daniels, 
 O. Farkas, J. B. Foresman, J. V. Ortiz, J. Cioslowski, 
 and D. J. Fox, Gaussian, Inc., Wallingford CT, 2010.
 
 ******************************************
 Gaussian 09:  EM64L-G09RevB.01 12-Aug-2010
                 8-May-2018 
 ******************************************
 %nprocshared=20
 Will use up to   20 processors via shared memory.
 %mem=5GB
 ---------------------------------------------------------------
 #p m062x/6-311+g(2df,2p) opt=(verytight,gdiis) freq IOP(2/16=3)
 ---------------------------------------------------------------

 Warning!  Use of Opt=GDIIS is deprecated since it is seldom a good choice.

 1/7=1,14=-1,18=20,19=11,26=3,38=1/1,3;
 2/9=110,12=2,16=3,17=6,18=5,40=1/2;
 3/5=4,6=6,7=214,11=2,16=1,25=1,30=1,71=1,74=-55/1,2,3;
 4//1;
 5/5=2,38=5/2;
 6/7=2,8=2,9=2,10=2,28=1/1;
 7//1,2,3,16;
 1/7=1,14=-1,18=20,19=11/3(2);
 2/9=110,16=3/2;
 99//99;
 2/9=110,16=3/2;
 3/5=4,6=6,7=214,11=2,16=1,25=1,30=1,71=1,74=-55/1,2,3;
 4/5=5,16=3/1;
 5/5=2,38=5/2;
 7//1,2,3,16;
 1/7=1,14=-1,18=20,19=11/3(-5);
 2/9=110,16=3/2;
 6/7=2,8=2,9=2,10=2,19=2,28=1/1;
 99/9=1/99;
 Leave Link    1 at Tue May  8 21:43:32 2018, MaxMem=  671088640 cpu:       1.2
 (Enter /shared/apps/gaussian/G09_LINUX_LINDA/g09/l101.exe)
 ------------------------------
 Gaussian input prepared by ASE
 ------------------------------
 Symbolic Z-matrix:
 Charge =  0 Multiplicity = 1
 O                     0.5685    0.2787    0.317 
 O                    -0.6072    0.3631   -0.2653 
 H                     1.205    -0.2895   -0.1693 
 H                    -1.1663   -0.3523    0.1177 
 
 NAtoms=      4 NQM=      4 NQMF=      0 NMic=      0 NMicF=      0 NTot=      4.
                    Isotopes and Nuclear Properties:
 (Nuclear quadrupole moments (NQMom) in fm**2, nuclear magnetic moments (NMagM)
  in nuclear magnetons)

  Atom         1           2           3           4
 IAtWgt=          16          16           1           1
 AtmWgt=  15.9949146  15.9949146   1.0078250   1.0078250
 NucSpn=           0           0           1           1
 AtZEff=   0.0000000   0.0000000   0.0000000   0.0000000
 NQMom=    0.0000000   0.0000000   0.0000000   0.0000000
 NMagM=    0.0000000   0.0000000   2.7928460   2.7928460
 Leave Link  101 at Tue May  8 21:43:32 2018, MaxMem=  671088640 cpu:       1.1
 (Enter /shared/apps/gaussian/G09_LINUX_LINDA/g09/l103.exe)

 GradGradGradGradGradGradGradGradGradGradGradGradGradGradGradGradGradGrad
 Berny optimization.
 Initialization pass.
                           ----------------------------
                           !    Initial Parameters    !
                           ! (Angstroms and Degrees)  !
 --------------------------                            --------------------------
 ! Name  Definition              Value          Derivative Info.                !
 --------------------------------------------------------------------------------
 ! R1    R(1,2)                  1.3147         estimate D2E/DX2                !
 ! R2    R(1,3)                  0.9821         estimate D2E/DX2                !
 ! R3    R(2,4)                  0.9854         estimate D2E/DX2                !
 ! A1    A(2,1,3)              113.4165         estimate D2E/DX2                !
 ! A2    A(1,2,4)              106.7757         estimate D2E/DX2                !
 ! D1    D(3,1,2,4)             91.6595         estimate D2E/DX2                !
 --------------------------------------------------------------------------------
 Trust Radius=3.00D-01 FncErr=1.00D-07 GrdErr=1.00D-06
 Number of steps in this run=     20 maximum allowed number of steps=    100.
 GradGradGradGradGradGradGradGradGradGradGradGradGradGradGradGradGradGrad

 Leave Link  103 at Tue May  8 21:43:33 2018, MaxMem=  671088640 cpu:       0.2
 (Enter /shared/apps/gaussian/G09_LINUX_LINDA/g09/l202.exe)
                          Input orientation:                          
 ---------------------------------------------------------------------
 Center     Atomic      Atomic             Coordinates (Angstroms)
 Number     Number       Type             X           Y           Z
 ---------------------------------------------------------------------
      1          8           0        0.568500    0.278700    0.317000
      2          8           0       -0.607200    0.363100   -0.265300
      3          1           0        1.205000   -0.289500   -0.169300
      4          1           0       -1.166300   -0.352300    0.117700
 ---------------------------------------------------------------------
                    Distance matrix (angstroms):
                    1          2          3          4
     1  O    0.000000
     2  O    1.314712   0.000000
     3  H    0.982075   1.928515   0.000000
     4  H    1.856721   0.985433   2.389430   0.000000
 Stoichiometry    H2O2
 Framework group  C1[X(H2O2)]
 Deg. of freedom     6
 Full point group                 C1      NOp   1
 Largest Abelian subgroup         C1      NOp   1
 Largest concise Abelian subgroup C1      NOp   1
                         Standard orientation:                         
 ---------------------------------------------------------------------
 Center     Atomic      Atomic             Coordinates (Angstroms)
 Number     Number       Type             X           Y           Z
 ---------------------------------------------------------------------
      1          8           0        0.643373   -0.023557   -0.122626
      2          8           0       -0.654883   -0.107956    0.066782
      3          1           0        1.132582    0.299289    0.665356
      4          1           0       -1.040504    0.752817   -0.218602
 ---------------------------------------------------------------------
 Rotational constants (GHZ):    326.1301199     30.3120951     30.1602029
 Leave Link  202 at Tue May  8 21:43:33 2018, MaxMem=  671088640 cpu:       0.7
 (Enter /shared/apps/gaussian/G09_LINUX_LINDA/g09/l301.exe)
 Standard basis: 6-311+G(2df,2p) (5D, 7F)
 Ernie: Thresh=  0.10000D-02 Tol=  0.10000D-05 Strict=F.
 There are    86 symmetry adapted basis functions of A   symmetry.
 Integral buffers will be    131072 words long.
 Raffenetti 2 integral format.
 Two-electron integral symmetry is turned on.
    86 basis functions,   126 primitive gaussians,    96 cartesian basis functions
     9 alpha electrons        9 beta electrons
       nuclear repulsion energy        39.0636462434 Hartrees.
 IExCor= 4336 DFT=T Ex+Corr=M062X ExCW=0 ScaHFX=  0.540000
 ScaDFX=  1.000000  1.000000  1.000000  1.000000 ScalE2=  1.000000  1.000000
 IRadAn=      0 IRanWt=     -1 IRanGd=            0 ICorTp=0
 NAtoms=    4 NActive=    4 NUniq=    4 SFac= 1.00D+00 NAtFMM=   50 NAOKFM=F Big=F
 Leave Link  301 at Tue May  8 21:43:33 2018, MaxMem=  671088640 cpu:       1.0
 (Enter /shared/apps/gaussian/G09_LINUX_LINDA/g09/l302.exe)
 NPDir=0 NMtPBC=     1 NCelOv=     1 NCel=       1 NClECP=     1 NCelD=      1
         NCelK=      1 NCelE2=     1 NClLst=     1 CellRange=     0.0.
 One-electron integrals computed using PRISM.
 NBasis=    86 RedAO= T  NBF=    86
 NBsUse=    86 1.00D-06 NBFU=    86
 Precomputing XC quadrature grid using
 IXCGrd= 2 IRadAn=           0 IRanWt=          -1 IRanGd=           0 AccXCQ= 0.00D+00.
 NRdTot=     252 NPtTot=       31844 NUsed=       33673 NTot=       33705
 NSgBfM=    96    96    96    96    96 NAtAll=     4     4.
 Leave Link  302 at Tue May  8 21:43:34 2018, MaxMem=  671088640 cpu:       8.5
 (Enter /shared/apps/gaussian/G09_LINUX_LINDA/g09/l303.exe)
 DipDrv:  MaxL=1.
 Leave Link  303 at Tue May  8 21:43:34 2018, MaxMem=  671088640 cpu:       2.8
 (Enter /shared/apps/gaussian/G09_LINUX_LINDA/g09/l401.exe)
 Harris functional with IExCor= 1009 diagonalized for initial guess.
 ExpMin= 8.45D-02 ExpMax= 8.59D+03 ExpMxC= 1.30D+03 IAcc=2 IRadAn=         0 AccDes= 0.00D+00
 HarFok:  IExCor= 1009 AccDes= 0.00D+00 IRadAn=         0 IDoV= 1
 ScaDFX=  1.000000  1.000000  1.000000  1.000000
 FoFCou: FMM=F IPFlag=           0 FMFlag=      100000 FMFlg1=           0
         NFxFlg=           0 DoJE=T BraDBF=F KetDBF=T FulRan=T
         Omega=  0.000000  0.000000  1.000000  0.000000  0.000000 ICntrl=     500 IOpCl=  0
         NMat0=    1 NMatS0=    1 NMatT0=    0 NMatD0=    1 NMtDS0=    0 NMtDT0=    0
         I1Cent=           4 NGrid=           0.
 Petite list used in FoFCou.
 Harris En= -151.465992135874    
 Initial guess orbital symmetries:
       Occupied  (A) (A) (A) (A) (A) (A) (A) (A) (A)
       Virtual   (A) (A) (A) (A) (A) (A) (A) (A) (A) (A) (A) (A)
                 (A) (A) (A) (A) (A) (A) (A) (A) (A) (A) (A) (A)
                 (A) (A) (A) (A) (A) (A) (A) (A) (A) (A) (A) (A)
                 (A) (A) (A) (A) (A) (A) (A) (A) (A) (A) (A) (A)
                 (A) (A) (A) (A) (A) (A) (A) (A) (A) (A) (A) (A)
                 (A) (A) (A) (A) (A) (A) (A) (A) (A) (A) (A) (A)
                 (A) (A) (A) (A) (A)
 The electronic state of the initial guess is 1-A.
 Leave Link  401 at Tue May  8 21:43:37 2018, MaxMem=  671088640 cpu:      25.8
 (Enter /shared/apps/gaussian/G09_LINUX_LINDA/g09/l502.exe)
 Closed shell SCF:
 Requested convergence on RMS density matrix=1.00D-08 within 128 cycles.
 Requested convergence on MAX density matrix=1.00D-06.
 Requested convergence on             energy=1.00D-06.
 No special actions if energy rises.
 Using DIIS extrapolation, IDIIS=  1040.
 Integral symmetry usage will be decided dynamically.
        33624 words used for storage of precomputed grid.
 Keep R1 ints in memory in canonical form, NReq=12863544.
 IEnd=       82034 IEndB=       82034 NGot=   671088640 MDV=   660191035
 LenX=   660191035 LenY=   660181378
 Symmetry not used in FoFDir.
 MinBra= 0 MaxBra= 3 Meth= 1.
 IRaf=       0 NMat=   1 IRICut=       1 DoRegI=T DoRafI=F ISym2E= 0 JSym2E=0.
 Integral accuracy reduced to 1.0D-05 until final iterations.

 Cycle   1  Pass 0  IDiag  1:
 E= -151.498406802430    
 DIIS: error= 2.50D-02 at cycle   1 NSaved=   1.
 NSaved= 1 IEnMin= 1 EnMin= -151.498406802430     IErMin= 1 ErrMin= 2.50D-02
 ErrMax= 2.50D-02 EMaxC= 1.00D-01 BMatC= 7.30D-02 BMatP= 7.30D-02
 IDIUse=3 WtCom= 7.50D-01 WtEn= 2.50D-01
 Coeff-Com:  0.100D+01
 Coeff-En:   0.100D+01
 Coeff:      0.100D+01
 Gap=     0.426 Goal=   None    Shift=    0.000
 GapD=    0.426 DampG=2.000 DampE=0.500 DampFc=1.0000 IDamp=-1.
 RMSDP=3.39D-03 MaxDP=4.38D-02              OVMax= 7.85D-02

 Cycle   2  Pass 0  IDiag  1:
 E= -151.508778854014     Delta-E=       -0.010372051584 Rises=F Damp=F
 DIIS: error= 1.51D-02 at cycle   2 NSaved=   2.
 NSaved= 2 IEnMin= 2 EnMin= -151.508778854014     IErMin= 2 ErrMin= 1.51D-02
 ErrMax= 1.51D-02 EMaxC= 1.00D-01 BMatC= 3.73D-02 BMatP= 7.30D-02
 IDIUse=3 WtCom= 8.49D-01 WtEn= 1.51D-01
 Coeff-Com:  0.404D+00 0.596D+00
 Coeff-En:   0.396D+00 0.604D+00
 Coeff:      0.402D+00 0.598D+00
 Gap=     0.438 Goal=   None    Shift=    0.000
 RMSDP=1.69D-03 MaxDP=3.17D-02 DE=-1.04D-02 OVMax= 4.60D-02

 Cycle   3  Pass 0  IDiag  1:
 E= -151.532220567869     Delta-E=       -0.023441713855 Rises=F Damp=F
 DIIS: error= 4.03D-03 at cycle   3 NSaved=   3.
 NSaved= 3 IEnMin= 3 EnMin= -151.532220567869     IErMin= 3 ErrMin= 4.03D-03
 ErrMax= 4.03D-03 EMaxC= 1.00D-01 BMatC= 2.10D-03 BMatP= 3.73D-02
 IDIUse=3 WtCom= 9.60D-01 WtEn= 4.03D-02
 Coeff-Com:  0.520D-01 0.211D+00 0.737D+00
 Coeff-En:   0.000D+00 0.000D+00 0.100D+01
 Coeff:      0.499D-01 0.203D+00 0.748D+00
 Gap=     0.426 Goal=   None    Shift=    0.000
 RMSDP=2.95D-04 MaxDP=5.35D-03 DE=-2.34D-02 OVMax= 9.29D-03

 Cycle   4  Pass 0  IDiag  1:
 E= -151.533586774807     Delta-E=       -0.001366206938 Rises=F Damp=F
 DIIS: error= 6.68D-04 at cycle   4 NSaved=   4.
 NSaved= 4 IEnMin= 4 EnMin= -151.533586774807     IErMin= 4 ErrMin= 6.68D-04
 ErrMax= 6.68D-04 EMaxC= 1.00D-01 BMatC= 3.47D-05 BMatP= 2.10D-03
 IDIUse=3 WtCom= 9.93D-01 WtEn= 6.68D-03
 Coeff-Com: -0.362D-02 0.188D-01 0.165D+00 0.820D+00
 Coeff-En:   0.000D+00 0.000D+00 0.000D+00 0.100D+01
 Coeff:     -0.360D-02 0.186D-01 0.164D+00 0.821D+00
 Gap=     0.427 Goal=   None    Shift=    0.000
 RMSDP=3.44D-05 MaxDP=8.40D-04 DE=-1.37D-03 OVMax= 1.05D-03

 Cycle   5  Pass 0  IDiag  1:
 E= -151.533606956407     Delta-E=       -0.000020181600 Rises=F Damp=F
 DIIS: error= 7.50D-05 at cycle   5 NSaved=   5.
 NSaved= 5 IEnMin= 5 EnMin= -151.533606956407     IErMin= 5 ErrMin= 7.50D-05
 ErrMax= 7.50D-05 EMaxC= 1.00D-01 BMatC= 7.72D-07 BMatP= 3.47D-05
 IDIUse=1 WtCom= 1.00D+00 WtEn= 0.00D+00
 Coeff-Com: -0.136D-02 0.260D-02 0.316D-01 0.195D+00 0.772D+00
 Coeff:     -0.136D-02 0.260D-02 0.316D-01 0.195D+00 0.772D+00
 Gap=     0.428 Goal=   None    Shift=    0.000
 RMSDP=9.48D-06 MaxDP=1.97D-04 DE=-2.02D-05 OVMax= 3.00D-04

 Initial convergence to 1.0D-05 achieved.  Increase integral accuracy.
 Cycle   6  Pass 1  IDiag  1:
 E= -151.533644153667     Delta-E=       -0.000037197260 Rises=F Damp=F
 DIIS: error= 9.96D-05 at cycle   1 NSaved=   1.
 NSaved= 1 IEnMin= 1 EnMin= -151.533644153667     IErMin= 1 ErrMin= 9.96D-05
 ErrMax= 9.96D-05 EMaxC= 1.00D-01 BMatC= 1.81D-06 BMatP= 1.81D-06
 IDIUse=1 WtCom= 1.00D+00 WtEn= 0.00D+00
 Coeff-Com:  0.100D+01
 Coeff:      0.100D+01
 Gap=     0.427 Goal=   None    Shift=    0.000
 RMSDP=9.48D-06 MaxDP=1.97D-04 DE=-3.72D-05 OVMax= 3.02D-04

 Cycle   7  Pass 1  IDiag  1:
 E= -151.533644643852     Delta-E=       -0.000000490185 Rises=F Damp=F
 DIIS: error= 8.58D-05 at cycle   2 NSaved=   2.
 NSaved= 2 IEnMin= 2 EnMin= -151.533644643852     IErMin= 2 ErrMin= 8.58D-05
 ErrMax= 8.58D-05 EMaxC= 1.00D-01 BMatC= 7.78D-07 BMatP= 1.81D-06
 IDIUse=1 WtCom= 1.00D+00 WtEn= 0.00D+00
 Coeff-Com:  0.355D+00 0.645D+00
 Coeff:      0.355D+00 0.645D+00
 Gap=     0.428 Goal=   None    Shift=    0.000
 RMSDP=6.58D-06 MaxDP=1.56D-04 DE=-4.90D-07 OVMax= 2.34D-04

 Cycle   8  Pass 1  IDiag  1:
 E= -151.533645008578     Delta-E=       -0.000000364726 Rises=F Damp=F
 DIIS: error= 4.20D-05 at cycle   3 NSaved=   3.
 NSaved= 3 IEnMin= 3 EnMin= -151.533645008578     IErMin= 3 ErrMin= 4.20D-05
 ErrMax= 4.20D-05 EMaxC= 1.00D-01 BMatC= 1.94D-07 BMatP= 7.78D-07
 IDIUse=1 WtCom= 1.00D+00 WtEn= 0.00D+00
 Coeff-Com: -0.313D-01 0.327D+00 0.704D+00
 Coeff:     -0.313D-01 0.327D+00 0.704D+00
 Gap=     0.428 Goal=   None    Shift=    0.000
 RMSDP=2.42D-06 MaxDP=4.89D-05 DE=-3.65D-07 OVMax= 7.96D-05

 Cycle   9  Pass 1  IDiag  1:
 E= -151.533645130224     Delta-E=       -0.000000121646 Rises=F Damp=F
 DIIS: error= 1.77D-06 at cycle   4 NSaved=   4.
 NSaved= 4 IEnMin= 4 EnMin= -151.533645130224     IErMin= 4 ErrMin= 1.77D-06
 ErrMax= 1.77D-06 EMaxC= 1.00D-01 BMatC= 3.67D-10 BMatP= 1.94D-07
 IDIUse=1 WtCom= 1.00D+00 WtEn= 0.00D+00
 Coeff-Com: -0.587D-02 0.310D-01 0.762D-01 0.899D+00
 Coeff:     -0.587D-02 0.310D-01 0.762D-01 0.899D+00
 Gap=     0.428 Goal=   None    Shift=    0.000
 RMSDP=3.64D-07 MaxDP=7.14D-06 DE=-1.22D-07 OVMax= 1.34D-05

 Cycle  10  Pass 1  IDiag  1:
 E= -151.533645130695     Delta-E=       -0.000000000471 Rises=F Damp=F
 DIIS: error= 1.06D-06 at cycle   5 NSaved=   5.
 NSaved= 5 IEnMin= 5 EnMin= -151.533645130695     IErMin= 5 ErrMin= 1.06D-06
 ErrMax= 1.06D-06 EMaxC= 1.00D-01 BMatC= 1.74D-10 BMatP= 3.67D-10
 IDIUse=1 WtCom= 1.00D+00 WtEn= 0.00D+00
 Coeff-Com:  0.111D-02-0.221D-01-0.442D-01 0.375D+00 0.690D+00
 Coeff:      0.111D-02-0.221D-01-0.442D-01 0.375D+00 0.690D+00
 Gap=     0.428 Goal=   None    Shift=    0.000
 RMSDP=1.42D-07 MaxDP=2.88D-06 DE=-4.71D-10 OVMax= 5.06D-06

 Cycle  11  Pass 1  IDiag  1:
 E= -151.533645130863     Delta-E=       -0.000000000168 Rises=F Damp=F
 DIIS: error= 2.77D-07 at cycle   6 NSaved=   6.
 NSaved= 6 IEnMin= 6 EnMin= -151.533645130863     IErMin= 6 ErrMin= 2.77D-07
 ErrMax= 2.77D-07 EMaxC= 1.00D-01 BMatC= 8.70D-12 BMatP= 1.74D-10
 IDIUse=1 WtCom= 1.00D+00 WtEn= 0.00D+00
 Coeff-Com:  0.772D-03-0.658D-02-0.152D-01-0.105D+00 0.862D-01 0.104D+01
 Coeff:      0.772D-03-0.658D-02-0.152D-01-0.105D+00 0.862D-01 0.104D+01
 Gap=     0.428 Goal=   None    Shift=    0.000
 RMSDP=8.24D-08 MaxDP=1.06D-06 DE=-1.68D-10 OVMax= 3.15D-06

 Cycle  12  Pass 1  IDiag  1:
 E= -151.533645130884     Delta-E=       -0.000000000021 Rises=F Damp=F
 DIIS: error= 6.01D-08 at cycle   7 NSaved=   7.
 NSaved= 7 IEnMin= 7 EnMin= -151.533645130884     IErMin= 7 ErrMin= 6.01D-08
 ErrMax= 6.01D-08 EMaxC= 1.00D-01 BMatC= 3.33D-13 BMatP= 8.70D-12
 IDIUse=1 WtCom= 1.00D+00 WtEn= 0.00D+00
 Coeff-Com: -0.806D-04 0.192D-02 0.370D-02-0.346D-01-0.372D-01 0.501D-01
 Coeff-Com:  0.102D+01
 Coeff:     -0.806D-04 0.192D-02 0.370D-02-0.346D-01-0.372D-01 0.501D-01
 Coeff:      0.102D+01
 Gap=     0.428 Goal=   None    Shift=    0.000
 RMSDP=1.39D-08 MaxDP=1.58D-07 DE=-2.06D-11 OVMax= 5.06D-07

 Cycle  13  Pass 1  IDiag  1:
 E= -151.533645130884     Delta-E=        0.000000000000 Rises=F Damp=F
 DIIS: error= 1.07D-08 at cycle   8 NSaved=   8.
 NSaved= 8 IEnMin= 8 EnMin= -151.533645130884     IErMin= 8 ErrMin= 1.07D-08
 ErrMax= 1.07D-08 EMaxC= 1.00D-01 BMatC= 6.20D-15 BMatP= 3.33D-13
 IDIUse=1 WtCom= 1.00D+00 WtEn= 0.00D+00
 Coeff-Com: -0.312D-04 0.308D-03 0.661D-03 0.283D-02-0.332D-02-0.318D-01
 Coeff-Com:  0.133D-01 0.102D+01
 Coeff:     -0.312D-04 0.308D-03 0.661D-03 0.283D-02-0.332D-02-0.318D-01
 Coeff:      0.133D-01 0.102D+01
 Gap=     0.428 Goal=   None    Shift=    0.000
 RMSDP=2.51D-09 MaxDP=4.23D-08 DE=-2.84D-14 OVMax= 8.41D-08

 SCF Done:  E(RM062X) =  -151.533645131     A.U. after   13 cycles
             Convg  =    0.2511D-08             -V/T =  2.0018
 KE= 1.512596607349D+02 PE=-4.369535443296D+02 EE= 9.509659222046D+01
 Leave Link  502 at Tue May  8 21:43:54 2018, MaxMem=  671088640 cpu:     166.5
 (Enter /shared/apps/gaussian/G09_LINUX_LINDA/g09/l601.exe)
 Copying SCF densities to generalized density rwf, IOpCl= 0 IROHF=0.

 **********************************************************************

            Population analysis using the SCF density.

 **********************************************************************

 Orbital symmetries:
       Occupied  (A) (A) (A) (A) (A) (A) (A) (A) (A)
       Virtual   (A) (A) (A) (A) (A) (A) (A) (A) (A) (A) (A) (A)
                 (A) (A) (A) (A) (A) (A) (A) (A) (A) (A) (A) (A)
                 (A) (A) (A) (A) (A) (A) (A) (A) (A) (A) (A) (A)
                 (A) (A) (A) (A) (A) (A) (A) (A) (A) (A) (A) (A)
                 (A) (A) (A) (A) (A) (A) (A) (A) (A) (A) (A) (A)
                 (A) (A) (A) (A) (A) (A) (A) (A) (A) (A) (A) (A)
                 (A) (A) (A) (A) (A)
 The electronic state is 1-A.
 Alpha  occ. eigenvalues --  -19.68517 -19.67966  -1.31013  -0.99394  -0.66896
 Alpha  occ. eigenvalues --   -0.58403  -0.53538  -0.37162  -0.36869
 Alpha virt. eigenvalues --    0.05887   0.06205   0.13439   0.15975   0.19411
 Alpha virt. eigenvalues --    0.20092   0.21363   0.21769   0.26026   0.30230
 Alpha virt. eigenvalues --    0.33876   0.48840   0.50594   0.67577   0.72426
 Alpha virt. eigenvalues --    0.79761   0.80462   0.90361   0.92496   0.95901
 Alpha virt. eigenvalues --    1.09394   1.10530   1.12070   1.31270   1.35808
 Alpha virt. eigenvalues --    1.41657   1.53091   1.55677   1.57767   1.66866
 Alpha virt. eigenvalues --    1.92245   2.06376   2.15408   2.22700   2.26423
 Alpha virt. eigenvalues --    2.33368   2.49050   2.59905   2.78475   3.53910
 Alpha virt. eigenvalues --    3.68288   3.76363   3.76791   4.03706   4.12582
 Alpha virt. eigenvalues --    4.60430   4.66650   4.72456   4.74095   4.90686
 Alpha virt. eigenvalues --    5.08976   5.09673   5.14167   5.15418   5.23696
 Alpha virt. eigenvalues --    5.28264   5.32731   5.46734   5.64124   5.68514
 Alpha virt. eigenvalues --    6.35782   6.42941   6.79632   6.86856   6.89056
 Alpha virt. eigenvalues --    6.94661   6.95848   6.98041   6.99023   7.23629
 Alpha virt. eigenvalues --    7.27203   7.52657   7.56019   7.87367   7.90259
 Alpha virt. eigenvalues --   49.98246  50.00061
          Condensed to atoms (all electrons):
              1          2          3          4
     1  O    7.995661   0.102180   0.226146  -0.061148
     2  O    0.102180   7.954625  -0.051778   0.234945
     3  H    0.226146  -0.051778   0.572117   0.002251
     4  H   -0.061148   0.234945   0.002251   0.572406
 Mulliken atomic charges:
              1
     1  O   -0.262839
     2  O   -0.239972
     3  H    0.251265
     4  H    0.251546
 Sum of Mulliken atomic charges =   0.00000
 Mulliken charges with hydrogens summed into heavy atoms:
              1
     1  O   -0.011574
     2  O    0.011574
 Sum of Mulliken charges with hydrogens summed into heavy atoms =   0.00000
 Electronic spatial extent (au):  <R**2>=             61.9165
 Charge=              0.0000 electrons
 Dipole moment (field-independent basis, Debye):
    X=              0.1136    Y=              2.0789    Z=              0.9215  Tot=              2.2769
 Quadrupole moment (field-independent basis, Debye-Ang):
   XX=             -9.9805   YY=            -11.1981   ZZ=            -11.6280
   XY=             -1.0746   XZ=              2.4832   YZ=              0.0690
 Traceless Quadrupole moment (field-independent basis, Debye-Ang):
   XX=              0.9550   YY=             -0.2626   ZZ=             -0.6925
   XY=             -1.0746   XZ=              2.4832   YZ=              0.0690
 Octapole moment (field-independent basis, Debye-Ang**2):
  XXX=              0.7015  YYY=              1.6326  ZZZ=              0.8227  XYY=             -1.2121
  XXY=              3.0221  XXZ=              1.5329  XZZ=              1.0801  YZZ=              0.5519
  YYZ=              0.0215  XYZ=              0.9656
 Hexadecapole moment (field-independent basis, Debye-Ang**3):
 XXXX=            -38.1077 YYYY=            -11.2512 ZZZZ=            -11.5644 XXXY=             -1.2842
 XXXZ=              3.6763 YYYX=             -1.4115 YYYZ=             -0.2206 ZZZX=              2.0442
 ZZZY=              0.2633 XXYY=             -8.6282 XXZZ=             -8.8212 YYZZ=             -3.8636
 XXYZ=              0.1475 YYXZ=              0.8497 ZZXY=              0.0355
 N-N= 3.906364624337D+01 E-N=-4.369535443531D+02  KE= 1.512596607349D+02
 No NMR shielding tensors so no spin-rotation constants.
 Leave Link  601 at Tue May  8 21:43:55 2018, MaxMem=  671088640 cpu:       9.6
 (Enter /shared/apps/gaussian/G09_LINUX_LINDA/g09/l701.exe)
 Compute integral first derivatives.
 ... and contract with generalized density number  0.
 Leave Link  701 at Tue May  8 21:43:56 2018, MaxMem=  671088640 cpu:      10.7
 (Enter /shared/apps/gaussian/G09_LINUX_LINDA/g09/l702.exe)
 L702 exits ... SP integral derivatives will be done elsewhere.
 Leave Link  702 at Tue May  8 21:43:56 2018, MaxMem=  671088640 cpu:       0.3
 (Enter /shared/apps/gaussian/G09_LINUX_LINDA/g09/l703.exe)
 Compute integral first derivatives, UseDBF=F ICtDFT=           0.
 Integral derivatives from FoFDir, PRISM(SPDF).
 Calling FoFJK, ICntrl=      2127 FMM=F ISym2X=0 I1Cent= 0 IOpClX= 0 NMat=1 NMatS=1 NMatT=0.
 FoFCou: FMM=F IPFlag=           0 FMFlag=      100000 FMFlg1=         800
         NFxFlg=           0 DoJE=F BraDBF=F KetDBF=F FulRan=T
         Omega=  0.000000  0.000000  1.000000  0.000000  0.000000 ICntrl=    2127 IOpCl=  0
         NMat0=    1 NMatS0=    1 NMatT0=    0 NMatD0=    1 NMtDS0=    0 NMtDT0=    0
         I1Cent=           0 NGrid=           0.
 Symmetry not used in FoFCou.
 Leave Link  703 at Tue May  8 21:43:59 2018, MaxMem=  671088640 cpu:      26.1
 (Enter /shared/apps/gaussian/G09_LINUX_LINDA/g09/l716.exe)
 Dipole        = 4.47040712D-02 8.17921067D-01 3.62547637D-01
 ***** Axes restored to original set *****
 -------------------------------------------------------------------
 Center     Atomic                   Forces (Hartrees/Bohr)
 Number     Number              X              Y              Z
 -------------------------------------------------------------------
      1        8           0.084240879   -0.005483550    0.048975768
      2        8          -0.074709989   -0.015007647   -0.038942241
      3        1          -0.022017962    0.006824130   -0.004889353
      4        1           0.012487072    0.013667067   -0.005144174
 -------------------------------------------------------------------
 Cartesian Forces:  Max     0.084240879 RMS     0.038484818
 Leave Link  716 at Tue May  8 21:43:59 2018, MaxMem=  671088640 cpu:       0.4
 (Enter /shared/apps/gaussian/G09_LINUX_LINDA/g09/l103.exe)

 GradGradGradGradGradGradGradGradGradGradGradGradGradGradGradGradGradGrad
 Berny optimization.
 Internal  Forces:  Max     0.075104590 RMS     0.034934908
 Search for a local minimum.
 Step number   1 out of a maximum of   20
 All quantities printed in internal units (Hartrees-Bohrs-Radians)
 Swaping is turned off.
 Second derivative matrix not updated -- first step.
 The second derivative matrix:
                          R1        R2        R3        A1        A2
           R1           0.63268
           R2           0.00000   0.50984
           R3           0.00000   0.00000   0.50344
           A1           0.00000   0.00000   0.00000   0.16000
           A2           0.00000   0.00000   0.00000   0.00000   0.16000
           D1           0.00000   0.00000   0.00000   0.00000   0.00000
                          D1
           D1           0.02423
 ITU=  0
     Eigenvalues ---    0.02423   0.16000   0.16000   0.50344   0.50984
     Eigenvalues ---    0.63268
 Angle between quadratic step and forces=  38.24 degrees.
 Linear search not attempted -- option 19 set.
 Iteration  1 RMS(Cart)=  0.08707929 RMS(Int)=  0.00775391
 Iteration  2 RMS(Cart)=  0.00685815 RMS(Int)=  0.00001735
 Iteration  3 RMS(Cart)=  0.00001536 RMS(Int)=  0.00000000
 Iteration  4 RMS(Cart)=  0.00000000 RMS(Int)=  0.00000000
 Variable       Old X    -DE/DX   Delta X   Delta X   Delta X     New X
                                 (Linear)    (Quad)   (Total)
    R1        2.48445   0.07510   0.00000   0.11871   0.11871   2.60315
    R2        1.85585  -0.01582   0.00000  -0.03104  -0.03104   1.82482
    R3        1.86220  -0.01901   0.00000  -0.03776  -0.03776   1.82444
    A1        1.97949  -0.03230   0.00000  -0.20187  -0.20187   1.77762
    A2        1.86359  -0.00490   0.00000  -0.03061  -0.03061   1.83298
    D1        1.59976   0.00175   0.00000   0.07214   0.07214   1.67190
         Item               Value     Threshold  Converged?
 Maximum Force            0.075105     0.000002     NO 
 RMS     Force            0.034935     0.000001     NO 
 Maximum Displacement     0.136201     0.000006     NO 
 RMS     Displacement     0.090176     0.000004     NO 
 Predicted change in Energy=-8.460429D-03
 GradGradGradGradGradGradGradGradGradGradGradGradGradGradGradGradGradGrad

 Leave Link  103 at Tue May  8 21:44:01 2018, MaxMem=  671088640 cpu:      18.6
 (Enter /shared/apps/gaussian/G09_LINUX_LINDA/g09/l202.exe)
                          Input orientation:                          
 ---------------------------------------------------------------------
 Center     Atomic      Atomic             Coordinates (Angstroms)
 Number     Number       Type             X           Y           Z
 ---------------------------------------------------------------------
      1          8           0        0.604265    0.291592    0.375974
      2          8           0       -0.595607    0.333653   -0.299399
      3          1           0        1.132925   -0.280799   -0.194438
      4          1           0       -1.141584   -0.344447    0.117963
 ---------------------------------------------------------------------
                    Distance matrix (angstroms):
                    1          2          3          4
     1  O    0.000000
     2  O    1.377530   0.000000
     3  H    0.965652   1.837496   0.000000
     4  H    1.875927   0.965454   2.296745   0.000000
 Stoichiometry    H2O2
 Framework group  C1[X(H2O2)]
 Deg. of freedom     6
 Full point group                 C1      NOp   1
 Largest Abelian subgroup         C1      NOp   1
 Largest concise Abelian subgroup C1      NOp   1
                         Standard orientation:                         
 ---------------------------------------------------------------------
 Center     Atomic      Atomic             Coordinates (Angstroms)
 Number     Number       Type             X           Y           Z
 ---------------------------------------------------------------------
      1          8           0       -0.684078   -0.113674   -0.048852
      2          8           0        0.678214    0.086782   -0.088409
      3          1           0       -0.982763    0.653175    0.456334
      4          1           0        1.029676   -0.438039    0.641754
 ---------------------------------------------------------------------
 Rotational constants (GHZ):    310.7526618     28.5362873     28.3335329
 Leave Link  202 at Tue May  8 21:44:01 2018, MaxMem=  671088640 cpu:       0.9
 (Enter /shared/apps/gaussian/G09_LINUX_LINDA/g09/l301.exe)
 Standard basis: 6-311+G(2df,2p) (5D, 7F)
 Ernie: Thresh=  0.10000D-02 Tol=  0.10000D-05 Strict=F.
 There are    86 symmetry adapted basis functions of A   symmetry.
 Integral buffers will be    131072 words long.
 Raffenetti 2 integral format.
 Two-electron integral symmetry is turned on.
    86 basis functions,   126 primitive gaussians,    96 cartesian basis functions
     9 alpha electrons        9 beta electrons
       nuclear repulsion energy        38.1454702292 Hartrees.
 IExCor= 4336 DFT=T Ex+Corr=M062X ExCW=0 ScaHFX=  0.540000
 ScaDFX=  1.000000  1.000000  1.000000  1.000000 ScalE2=  1.000000  1.000000
 IRadAn=      0 IRanWt=     -1 IRanGd=            0 ICorTp=0
 NAtoms=    4 NActive=    4 NUniq=    4 SFac= 1.00D+00 NAtFMM=   50 NAOKFM=F Big=F
 Leave Link  301 at Tue May  8 21:44:01 2018, MaxMem=  671088640 cpu:       1.0
 (Enter /shared/apps/gaussian/G09_LINUX_LINDA/g09/l302.exe)
 NPDir=0 NMtPBC=     1 NCelOv=     1 NCel=       1 NClECP=     1 NCelD=      1
         NCelK=      1 NCelE2=     1 NClLst=     1 CellRange=     0.0.
 One-electron integrals computed using PRISM.
 NBasis=    86 RedAO= T  NBF=    86
 NBsUse=    86 1.00D-06 NBFU=    86
 Precomputing XC quadrature grid using
 IXCGrd= 2 IRadAn=           0 IRanWt=          -1 IRanGd=           0 AccXCQ= 0.00D+00.
 NRdTot=     252 NPtTot=       31844 NUsed=       33673 NTot=       33705
 NSgBfM=    96    96    96    96    96 NAtAll=     4     4.
 Leave Link  302 at Tue May  8 21:44:02 2018, MaxMem=  671088640 cpu:       8.5
 (Enter /shared/apps/gaussian/G09_LINUX_LINDA/g09/l303.exe)
 DipDrv:  MaxL=1.
 Leave Link  303 at Tue May  8 21:44:03 2018, MaxMem=  671088640 cpu:       2.9
 (Enter /shared/apps/gaussian/G09_LINUX_LINDA/g09/l401.exe)
 Initial guess read from the read-write file.
 B after Tr=     0.000000    0.000000    0.000000
         Rot=    1.000000    0.000000    0.000000    0.000000 Ang=   0.00 deg.
 Guess basis will be translated and rotated to current coordinates.
 Initial guess orbital symmetries:
       Occupied  (A) (A) (A) (A) (A) (A) (A) (A) (A)
       Virtual   (A) (A) (A) (A) (A) (A) (A) (A) (A) (A) (A) (A)
                 (A) (A) (A) (A) (A) (A) (A) (A) (A) (A) (A) (A)
                 (A) (A) (A) (A) (A) (A) (A) (A) (A) (A) (A) (A)
                 (A) (A) (A) (A) (A) (A) (A) (A) (A) (A) (A) (A)
                 (A) (A) (A) (A) (A) (A) (A) (A) (A) (A) (A) (A)
                 (A) (A) (A) (A) (A) (A) (A) (A) (A) (A) (A) (A)
                 (A) (A) (A) (A) (A)
 The electronic state of the initial guess is 1-A.
 Generating alternative initial guess.
 Harris functional with IExCor= 1009 diagonalized for initial guess.
 ExpMin= 8.45D-02 ExpMax= 8.59D+03 ExpMxC= 1.30D+03 IAcc=2 IRadAn=         0 AccDes= 0.00D+00
 HarFok:  IExCor= 1009 AccDes= 0.00D+00 IRadAn=         0 IDoV= 1
 ScaDFX=  1.000000  1.000000  1.000000  1.000000
 FoFCou: FMM=F IPFlag=           0 FMFlag=      100000 FMFlg1=           0
         NFxFlg=           0 DoJE=T BraDBF=F KetDBF=T FulRan=T
         Omega=  0.000000  0.000000  1.000000  0.000000  0.000000 ICntrl=     500 IOpCl=  0
         NMat0=    1 NMatS0=    1 NMatT0=    0 NMatD0=    1 NMtDS0=    0 NMtDT0=    0
         I1Cent=           4 NGrid=           0.
 Petite list used in FoFCou.
 Harris En= -151.474172577513    
 Leave Link  401 at Tue May  8 21:44:06 2018, MaxMem=  671088640 cpu:      28.9
 (Enter /shared/apps/gaussian/G09_LINUX_LINDA/g09/l502.exe)
 Closed shell SCF:
 Requested convergence on RMS density matrix=1.00D-08 within 128 cycles.
 Requested convergence on MAX density matrix=1.00D-06.
 Requested convergence on             energy=1.00D-06.
 No special actions if energy rises.
 Using DIIS extrapolation, IDIIS=  1040.
 Integral symmetry usage will be decided dynamically.
        33624 words used for storage of precomputed grid.
 Keep R1 ints in memory in canonical form, NReq=12863544.
 IEnd=       82034 IEndB=       82034 NGot=   671088640 MDV=   660191035
 LenX=   660191035 LenY=   660181378
 Symmetry not used in FoFDir.
 MinBra= 0 MaxBra= 3 Meth= 1.
 IRaf=       0 NMat=   1 IRICut=       1 DoRegI=T DoRafI=F ISym2E= 0 JSym2E=0.
 Integral accuracy reduced to 1.0D-05 until final iterations.

 Cycle   1  Pass 0  IDiag  1:
 E= -150.011412663448    
 DIIS: error= 9.12D-02 at cycle   1 NSaved=   1.
 NSaved= 1 IEnMin= 1 EnMin= -150.011412663448     IErMin= 1 ErrMin= 9.12D-02
 ErrMax= 9.12D-02 EMaxC= 1.00D-01 BMatC= 8.38D-01 BMatP= 8.38D-01
 IDIUse=3 WtCom= 8.79D-02 WtEn= 9.12D-01
 Coeff-Com:  0.100D+01
 Coeff-En:   0.100D+01
 Coeff:      0.100D+01
 Recover alternate guess density for next cycle.
 RMSDP=1.52D-02 MaxDP=2.35D-01              OVMax= 0.00D+00

 Cycle   2  Pass 0  IDiag  1:
 E= -151.511152112569     Delta-E=       -1.499739449120 Rises=F Damp=F
 DIIS: error= 2.13D-02 at cycle   2 NSaved=   2.
 NSaved= 2 IEnMin= 2 EnMin= -151.511152112569     IErMin= 2 ErrMin= 2.13D-02
 ErrMax= 2.13D-02 EMaxC= 1.00D-01 BMatC= 6.81D-02 BMatP= 8.38D-01
 IDIUse=3 WtCom= 7.87D-01 WtEn= 2.13D-01
 Coeff-Com: -0.220D-01 0.102D+01
 Coeff-En:   0.000D+00 0.100D+01
 Coeff:     -0.173D-01 0.102D+01
 Gap=     0.476 Goal=   None    Shift=    0.000
 RMSDP=3.08D-03 MaxDP=3.82D-02 DE=-1.50D+00 OVMax= 6.95D-02

 Cycle   3  Pass 0  IDiag  1:
 E= -151.523256963398     Delta-E=       -0.012104850830 Rises=F Damp=F
 DIIS: error= 1.28D-02 at cycle   3 NSaved=   3.
 NSaved= 3 IEnMin= 3 EnMin= -151.523256963398     IErMin= 3 ErrMin= 1.28D-02
 ErrMax= 1.28D-02 EMaxC= 1.00D-01 BMatC= 3.01D-02 BMatP= 6.81D-02
 IDIUse=3 WtCom= 8.72D-01 WtEn= 1.28D-01
 Coeff-Com:  0.233D-01 0.353D+00 0.624D+00
 Coeff-En:   0.000D+00 0.355D+00 0.645D+00
 Coeff:      0.203D-01 0.353D+00 0.627D+00
 Gap=     0.450 Goal=   None    Shift=    0.000
 RMSDP=1.48D-03 MaxDP=3.07D-02 DE=-1.21D-02 OVMax= 3.88D-02

 Cycle   4  Pass 0  IDiag  1:
 E= -151.541989584953     Delta-E=       -0.018732621554 Rises=F Damp=F
 DIIS: error= 3.02D-03 at cycle   4 NSaved=   4.
 NSaved= 4 IEnMin= 4 EnMin= -151.541989584953     IErMin= 4 ErrMin= 3.02D-03
 ErrMax= 3.02D-03 EMaxC= 1.00D-01 BMatC= 1.63D-03 BMatP= 3.01D-02
 IDIUse=3 WtCom= 9.70D-01 WtEn= 3.02D-02
 Coeff-Com:  0.331D-02 0.428D-01 0.210D+00 0.744D+00
 Coeff-En:   0.000D+00 0.000D+00 0.000D+00 0.100D+01
 Coeff:      0.321D-02 0.415D-01 0.204D+00 0.752D+00
 Gap=     0.440 Goal=   None    Shift=    0.000
 RMSDP=2.75D-04 MaxDP=6.60D-03 DE=-1.87D-02 OVMax= 8.32D-03

 Cycle   5  Pass 0  IDiag  1:
 E= -151.543038844414     Delta-E=       -0.001049259462 Rises=F Damp=F
 DIIS: error= 9.17D-04 at cycle   5 NSaved=   5.
 NSaved= 5 IEnMin= 5 EnMin= -151.543038844414     IErMin= 5 ErrMin= 9.17D-04
 ErrMax= 9.17D-04 EMaxC= 1.00D-01 BMatC= 1.07D-04 BMatP= 1.63D-03
 IDIUse=3 WtCom= 9.91D-01 WtEn= 9.17D-03
 Coeff-Com: -0.120D-02 0.362D-02 0.525D-01 0.296D+00 0.649D+00
 Coeff-En:   0.000D+00 0.000D+00 0.000D+00 0.000D+00 0.100D+01
 Coeff:     -0.119D-02 0.359D-02 0.520D-01 0.293D+00 0.653D+00
 Gap=     0.440 Goal=   None    Shift=    0.000
 RMSDP=6.84D-05 MaxDP=1.61D-03 DE=-1.05D-03 OVMax= 2.62D-03

 Cycle   6  Pass 0  IDiag  1:
 E= -151.543095463627     Delta-E=       -0.000056619213 Rises=F Damp=F
 DIIS: error= 4.18D-04 at cycle   6 NSaved=   6.
 NSaved= 6 IEnMin= 6 EnMin= -151.543095463627     IErMin= 6 ErrMin= 4.18D-04
 ErrMax= 4.18D-04 EMaxC= 1.00D-01 BMatC= 1.67D-05 BMatP= 1.07D-04
 IDIUse=3 WtCom= 9.96D-01 WtEn= 4.18D-03
 Coeff-Com: -0.231D-03-0.247D-02 0.986D-02 0.932D-01 0.343D+00 0.557D+00
 Coeff-En:   0.000D+00 0.000D+00 0.000D+00 0.000D+00 0.648D-01 0.935D+00
 Coeff:     -0.230D-03-0.246D-02 0.982D-02 0.928D-01 0.341D+00 0.559D+00
 Gap=     0.440 Goal=   None    Shift=    0.000
 RMSDP=2.12D-05 MaxDP=5.21D-04 DE=-5.66D-05 OVMax= 8.39D-04

 Cycle   7  Pass 0  IDiag  1:
 E= -151.543106093073     Delta-E=       -0.000010629446 Rises=F Damp=F
 DIIS: error= 2.15D-05 at cycle   7 NSaved=   7.
 NSaved= 7 IEnMin= 7 EnMin= -151.543106093073     IErMin= 7 ErrMin= 2.15D-05
 ErrMax= 2.15D-05 EMaxC= 1.00D-01 BMatC= 6.92D-08 BMatP= 1.67D-05
 IDIUse=1 WtCom= 1.00D+00 WtEn= 0.00D+00
 Coeff-Com:  0.102D-04 0.532D-04-0.287D-02-0.183D-01-0.520D-01-0.277D-01
 Coeff-Com:  0.110D+01
 Coeff:      0.102D-04 0.532D-04-0.287D-02-0.183D-01-0.520D-01-0.277D-01
 Coeff:      0.110D+01
 Gap=     0.440 Goal=   None    Shift=    0.000
 RMSDP=5.01D-06 MaxDP=6.94D-05 DE=-1.06D-05 OVMax= 1.64D-04

 Initial convergence to 1.0D-05 achieved.  Increase integral accuracy.
 Cycle   8  Pass 1  IDiag  1:
 E= -151.543138069675     Delta-E=       -0.000031976602 Rises=F Damp=F
 DIIS: error= 1.19D-04 at cycle   1 NSaved=   1.
 NSaved= 1 IEnMin= 1 EnMin= -151.543138069675     IErMin= 1 ErrMin= 1.19D-04
 ErrMax= 1.19D-04 EMaxC= 1.00D-01 BMatC= 2.10D-06 BMatP= 2.10D-06
 IDIUse=3 WtCom= 9.99D-01 WtEn= 1.19D-03
 Coeff-Com:  0.100D+01
 Coeff-En:   0.100D+01
 Coeff:      0.100D+01
 Gap=     0.440 Goal=   None    Shift=    0.000
 RMSDP=5.01D-06 MaxDP=6.94D-05 DE=-3.20D-05 OVMax= 1.80D-04

 Cycle   9  Pass 1  IDiag  1:
 E= -151.543139110075     Delta-E=       -0.000001040400 Rises=F Damp=F
 DIIS: error= 1.26D-05 at cycle   2 NSaved=   2.
 NSaved= 2 IEnMin= 2 EnMin= -151.543139110075     IErMin= 2 ErrMin= 1.26D-05
 ErrMax= 1.26D-05 EMaxC= 1.00D-01 BMatC= 2.35D-08 BMatP= 2.10D-06
 IDIUse=1 WtCom= 1.00D+00 WtEn= 0.00D+00
 Coeff-Com: -0.397D-01 0.104D+01
 Coeff:     -0.397D-01 0.104D+01
 Gap=     0.440 Goal=   None    Shift=    0.000
 RMSDP=2.68D-06 MaxDP=5.37D-05 DE=-1.04D-06 OVMax= 4.86D-05

 Cycle  10  Pass 1  IDiag  1:
 E= -151.543139121785     Delta-E=       -0.000000011709 Rises=F Damp=F
 DIIS: error= 7.91D-06 at cycle   3 NSaved=   3.
 NSaved= 3 IEnMin= 3 EnMin= -151.543139121785     IErMin= 3 ErrMin= 7.91D-06
 ErrMax= 7.91D-06 EMaxC= 1.00D-01 BMatC= 1.03D-08 BMatP= 2.35D-08
 IDIUse=1 WtCom= 1.00D+00 WtEn= 0.00D+00
 Coeff-Com: -0.241D-01 0.420D+00 0.604D+00
 Coeff:     -0.241D-01 0.420D+00 0.604D+00
 Gap=     0.440 Goal=   None    Shift=    0.000
 RMSDP=8.22D-07 MaxDP=1.94D-05 DE=-1.17D-08 OVMax= 2.34D-05

 Cycle  11  Pass 1  IDiag  1:
 E= -151.543139128426     Delta-E=       -0.000000006641 Rises=F Damp=F
 DIIS: error= 2.63D-06 at cycle   4 NSaved=   4.
 NSaved= 4 IEnMin= 4 EnMin= -151.543139128426     IErMin= 4 ErrMin= 2.63D-06
 ErrMax= 2.63D-06 EMaxC= 1.00D-01 BMatC= 7.63D-10 BMatP= 1.03D-08
 IDIUse=1 WtCom= 1.00D+00 WtEn= 0.00D+00
 Coeff-Com: -0.339D-02 0.285D-01 0.209D+00 0.766D+00
 Coeff:     -0.339D-02 0.285D-01 0.209D+00 0.766D+00
 Gap=     0.440 Goal=   None    Shift=    0.000
 RMSDP=2.69D-07 MaxDP=5.71D-06 DE=-6.64D-09 OVMax= 7.96D-06

 Cycle  12  Pass 1  IDiag  1:
 E= -151.543139128979     Delta-E=       -0.000000000553 Rises=F Damp=F
 DIIS: error= 1.03D-06 at cycle   5 NSaved=   5.
 NSaved= 5 IEnMin= 5 EnMin= -151.543139128979     IErMin= 5 ErrMin= 1.03D-06
 ErrMax= 1.03D-06 EMaxC= 1.00D-01 BMatC= 1.09D-10 BMatP= 7.63D-10
 IDIUse=1 WtCom= 1.00D+00 WtEn= 0.00D+00
 Coeff-Com:  0.763D-03-0.266D-01 0.362D-01 0.323D+00 0.667D+00
 Coeff:      0.763D-03-0.266D-01 0.362D-01 0.323D+00 0.667D+00
 Gap=     0.440 Goal=   None    Shift=    0.000
 RMSDP=1.17D-07 MaxDP=2.23D-06 DE=-5.53D-10 OVMax= 4.15D-06

 Cycle  13  Pass 1  IDiag  1:
 E= -151.543139129065     Delta-E=       -0.000000000086 Rises=F Damp=F
 DIIS: error= 3.45D-07 at cycle   6 NSaved=   6.
 NSaved= 6 IEnMin= 6 EnMin= -151.543139129065     IErMin= 6 ErrMin= 3.45D-07
 ErrMax= 3.45D-07 EMaxC= 1.00D-01 BMatC= 1.88D-11 BMatP= 1.09D-10
 IDIUse=1 WtCom= 1.00D+00 WtEn= 0.00D+00
 Coeff-Com:  0.854D-03-0.156D-01-0.249D-01-0.151D-01 0.300D+00 0.754D+00
 Coeff:      0.854D-03-0.156D-01-0.249D-01-0.151D-01 0.300D+00 0.754D+00
 Gap=     0.440 Goal=   None    Shift=    0.000
 RMSDP=6.03D-08 MaxDP=7.57D-07 DE=-8.63D-11 OVMax= 2.41D-06

 Cycle  14  Pass 1  IDiag  1:
 E= -151.543139129085     Delta-E=       -0.000000000020 Rises=F Damp=F
 DIIS: error= 7.80D-08 at cycle   7 NSaved=   7.
 NSaved= 7 IEnMin= 7 EnMin= -151.543139129085     IErMin= 7 ErrMin= 7.80D-08
 ErrMax= 7.80D-08 EMaxC= 1.00D-01 BMatC= 6.06D-13 BMatP= 1.88D-11
 IDIUse=1 WtCom= 1.00D+00 WtEn= 0.00D+00
 Coeff-Com: -0.149D-03 0.447D-02-0.560D-02-0.452D-01-0.854D-01-0.362D-01
 Coeff-Com:  0.117D+01
 Coeff:     -0.149D-03 0.447D-02-0.560D-02-0.452D-01-0.854D-01-0.362D-01
 Coeff:      0.117D+01
 Gap=     0.440 Goal=   None    Shift=    0.000
 RMSDP=2.47D-08 MaxDP=2.59D-07 DE=-2.03D-11 OVMax= 1.30D-06

 Cycle  15  Pass 1  IDiag  1:
 E= -151.543139129087     Delta-E=       -0.000000000002 Rises=F Damp=F
 DIIS: error= 1.14D-08 at cycle   8 NSaved=   8.
 NSaved= 8 IEnMin= 8 EnMin= -151.543139129087     IErMin= 8 ErrMin= 1.14D-08
 ErrMax= 1.14D-08 EMaxC= 1.00D-01 BMatC= 1.44D-14 BMatP= 6.06D-13
 IDIUse=1 WtCom= 1.00D+00 WtEn= 0.00D+00
 Coeff-Com: -0.473D-04 0.901D-03 0.131D-02 0.158D-02-0.103D-01-0.295D-01
 Coeff-Com: -0.317D-01 0.107D+01
 Coeff:     -0.473D-04 0.901D-03 0.131D-02 0.158D-02-0.103D-01-0.295D-01
 Coeff:     -0.317D-01 0.107D+01
 Gap=     0.440 Goal=   None    Shift=    0.000
 RMSDP=3.36D-09 MaxDP=3.76D-08 DE=-1.65D-12 OVMax= 1.84D-07

 SCF Done:  E(RM062X) =  -151.543139129     A.U. after   15 cycles
             Convg  =    0.3357D-08             -V/T =  2.0022
 KE= 1.512136266622D+02 PE=-4.350968329848D+02 EE= 9.419459696432D+01
 Leave Link  502 at Tue May  8 21:44:24 2018, MaxMem=  671088640 cpu:     182.3
 (Enter /shared/apps/gaussian/G09_LINUX_LINDA/g09/l701.exe)
 Compute integral first derivatives.
 ... and contract with generalized density number  0.
 Leave Link  701 at Tue May  8 21:44:26 2018, MaxMem=  671088640 cpu:      12.5
 (Enter /shared/apps/gaussian/G09_LINUX_LINDA/g09/l702.exe)
 L702 exits ... SP integral derivatives will be done elsewhere.
 Leave Link  702 at Tue May  8 21:44:26 2018, MaxMem=  671088640 cpu:       0.3
 (Enter /shared/apps/gaussian/G09_LINUX_LINDA/g09/l703.exe)
 Compute integral first derivatives, UseDBF=F ICtDFT=           0.
 Integral derivatives from FoFDir, PRISM(SPDF).
 Calling FoFJK, ICntrl=      2127 FMM=F ISym2X=0 I1Cent= 0 IOpClX= 0 NMat=1 NMatS=1 NMatT=0.
 FoFCou: FMM=F IPFlag=           0 FMFlag=      100000 FMFlg1=         800
         NFxFlg=           0 DoJE=F BraDBF=F KetDBF=F FulRan=T
         Omega=  0.000000  0.000000  1.000000  0.000000  0.000000 ICntrl=    2127 IOpCl=  0
         NMat0=    1 NMatS0=    1 NMatT0=    0 NMatD0=    1 NMtDS0=    0 NMtDT0=    0
         I1Cent=           0 NGrid=           0.
 Symmetry not used in FoFCou.
 Leave Link  703 at Tue May  8 21:44:29 2018, MaxMem=  671088640 cpu:      25.4
 (Enter /shared/apps/gaussian/G09_LINUX_LINDA/g09/l716.exe)
 Dipole        = 2.34194765D-02 1.61816430D-01 8.56138746D-01
 ***** Axes restored to original set *****
 -------------------------------------------------------------------
 Center     Atomic                   Forces (Hartrees/Bohr)
 Number     Number              X              Y              Z
 -------------------------------------------------------------------
      1        8           0.022738448   -0.007223755    0.010814842
      2        8          -0.028055496    0.002460705   -0.015886126
      3        1           0.002567071    0.003022068    0.002845796
      4        1           0.002749977    0.001740982    0.002225488
 -------------------------------------------------------------------
 Cartesian Forces:  Max     0.028055496 RMS     0.012148672
 Leave Link  716 at Tue May  8 21:44:29 2018, MaxMem=  671088640 cpu:       0.4
 (Enter /shared/apps/gaussian/G09_LINUX_LINDA/g09/l103.exe)

 GradGradGradGradGradGradGradGradGradGradGradGradGradGradGradGradGradGrad
 Berny optimization.
 Using GDIIS optimizer.
 Internal  Forces:  Max     0.028885933 RMS     0.012509008
 Search for a local minimum.
 Step number   2 out of a maximum of   20
 All quantities printed in internal units (Hartrees-Bohrs-Radians)
 Swaping is turned off.
 Update second derivatives using D2CorX and points    1    2
 DE= -9.49D-03 DEPred=-8.46D-03 R= 1.12D+00
 SS=  1.41D+00  RLast= 2.52D-01 DXNew= 5.0454D-01 7.5523D-01
 Trust test= 1.12D+00 RLast= 2.52D-01 DXMaxT set to 5.05D-01
 The second derivative matrix:
                          R1        R2        R3        A1        A2
           R1           0.44686
           R2           0.02639   0.50807
           R3           0.02950  -0.00147   0.50249
           A1           0.01636   0.00753   0.01095   0.20767
           A2           0.02402  -0.00526  -0.00635  -0.01132   0.15862
           D1          -0.01188   0.00286   0.00350   0.00688   0.00044
                          D1
           D1           0.02416
 ITU=  1  0
     Eigenvalues ---    0.02346   0.15350   0.20934   0.42944   0.50682
     Eigenvalues ---    0.52532
 DIIS coeff's:      1.16869     -0.16869
 Cosine:  1.000 >  0.970
 Length:  1.000
 GDIIS step was calculated using  2 of the last  2 vectors.
 Iteration  1 RMS(Cart)=  0.06790677 RMS(Int)=  0.00348629
 Iteration  2 RMS(Cart)=  0.00253278 RMS(Int)=  0.00000231
 Iteration  3 RMS(Cart)=  0.00000292 RMS(Int)=  0.00000000
 Iteration  4 RMS(Cart)=  0.00000000 RMS(Int)=  0.00000000
 Variable       Old X    -DE/DX   Delta X   Delta X   Delta X     New X
                                  (DIIS)     (GDIIS)  (Total)
    R1        2.60315   0.02889   0.02003   0.05163   0.07166   2.67481
    R2        1.82482  -0.00209  -0.00524  -0.00434  -0.00958   1.81524
    R3        1.82444  -0.00182  -0.00637  -0.00367  -0.01004   1.81440
    A1        1.77762   0.00749  -0.03405   0.05762   0.02356   1.80118
    A2        1.83298  -0.00561  -0.00516  -0.04056  -0.04572   1.78726
    D1        1.67190   0.00304   0.01217   0.14548   0.15765   1.82955
         Item               Value     Threshold  Converged?
 Maximum Force            0.028886     0.000002     NO 
 RMS     Force            0.012509     0.000001     NO 
 Maximum Displacement     0.080723     0.000006     NO 
 RMS     Displacement     0.067824     0.000004     NO 
 Predicted change in Energy=-1.510043D-03
 GradGradGradGradGradGradGradGradGradGradGradGradGradGradGradGradGradGrad

 Leave Link  103 at Tue May  8 21:44:31 2018, MaxMem=  671088640 cpu:      20.5
 (Enter /shared/apps/gaussian/G09_LINUX_LINDA/g09/l202.exe)
                          Input orientation:                          
 ---------------------------------------------------------------------
 Center     Atomic      Atomic             Coordinates (Angstroms)
 Number     Number       Type             X           Y           Z
 ---------------------------------------------------------------------
      1          8           0        0.603723    0.251418    0.387473
      2          8           0       -0.615517    0.316675   -0.328551
      3          1           0        1.175642   -0.250794   -0.198543
      4          1           0       -1.163848   -0.317300    0.139720
 ---------------------------------------------------------------------
                    Distance matrix (angstroms):
                    1          2          3          4
     1  O    0.000000
     2  O    1.415449   0.000000
     3  H    0.960585   1.883394   0.000000
     4  H    1.873267   0.960140   2.364753   0.000000
 Stoichiometry    H2O2
 Framework group  C1[X(H2O2)]
 Deg. of freedom     6
 Full point group                 C1      NOp   1
 Largest Abelian subgroup         C1      NOp   1
 Largest concise Abelian subgroup C1      NOp   1
                         Standard orientation:                         
 ---------------------------------------------------------------------
 Center     Atomic      Atomic             Coordinates (Angstroms)
 Number     Number       Type             X           Y           Z
 ---------------------------------------------------------------------
      1          8           0        0.698645    0.107510   -0.064856
      2          8           0       -0.700119   -0.109159   -0.062071
      3          1           0        1.029154   -0.585808    0.512029
      4          1           0       -1.017359    0.598999    0.503386
 ---------------------------------------------------------------------
 Rotational constants (GHZ):    312.8490400     27.3727663     26.8235370
 Leave Link  202 at Tue May  8 21:44:31 2018, MaxMem=  671088640 cpu:       0.9
 (Enter /shared/apps/gaussian/G09_LINUX_LINDA/g09/l301.exe)
 Standard basis: 6-311+G(2df,2p) (5D, 7F)
 Ernie: Thresh=  0.10000D-02 Tol=  0.10000D-05 Strict=F.
 There are    86 symmetry adapted basis functions of A   symmetry.
 Integral buffers will be    131072 words long.
 Raffenetti 2 integral format.
 Two-electron integral symmetry is turned on.
    86 basis functions,   126 primitive gaussians,    96 cartesian basis functions
     9 alpha electrons        9 beta electrons
       nuclear repulsion energy        37.4746688308 Hartrees.
 IExCor= 4336 DFT=T Ex+Corr=M062X ExCW=0 ScaHFX=  0.540000
 ScaDFX=  1.000000  1.000000  1.000000  1.000000 ScalE2=  1.000000  1.000000
 IRadAn=      0 IRanWt=     -1 IRanGd=            0 ICorTp=0
 NAtoms=    4 NActive=    4 NUniq=    4 SFac= 1.00D+00 NAtFMM=   50 NAOKFM=F Big=F
 Leave Link  301 at Tue May  8 21:44:31 2018, MaxMem=  671088640 cpu:       1.0
 (Enter /shared/apps/gaussian/G09_LINUX_LINDA/g09/l302.exe)
 NPDir=0 NMtPBC=     1 NCelOv=     1 NCel=       1 NClECP=     1 NCelD=      1
         NCelK=      1 NCelE2=     1 NClLst=     1 CellRange=     0.0.
 One-electron integrals computed using PRISM.
 NBasis=    86 RedAO= T  NBF=    86
 NBsUse=    86 1.00D-06 NBFU=    86
 Precomputing XC quadrature grid using
 IXCGrd= 2 IRadAn=           0 IRanWt=          -1 IRanGd=           0 AccXCQ= 0.00D+00.
 NRdTot=     252 NPtTot=       31844 NUsed=       33673 NTot=       33705
 NSgBfM=    96    96    96    96    96 NAtAll=     4     4.
 Leave Link  302 at Tue May  8 21:44:32 2018, MaxMem=  671088640 cpu:       7.8
 (Enter /shared/apps/gaussian/G09_LINUX_LINDA/g09/l303.exe)
 DipDrv:  MaxL=1.
 Leave Link  303 at Tue May  8 21:44:33 2018, MaxMem=  671088640 cpu:       3.2
 (Enter /shared/apps/gaussian/G09_LINUX_LINDA/g09/l401.exe)
 Initial guess read from the read-write file.
 B after Tr=     0.000000    0.000000    0.000000
         Rot=    1.000000    0.000000    0.000000    0.000000 Ang=   0.00 deg.
 Guess basis will be translated and rotated to current coordinates.
 Initial guess orbital symmetries:
       Occupied  (A) (A) (A) (A) (A) (A) (A) (A) (A)
       Virtual   (A) (A) (A) (A) (A) (A) (A) (A) (A) (A) (A) (A)
                 (A) (A) (A) (A) (A) (A) (A) (A) (A) (A) (A) (A)
                 (A) (A) (A) (A) (A) (A) (A) (A) (A) (A) (A) (A)
                 (A) (A) (A) (A) (A) (A) (A) (A) (A) (A) (A) (A)
                 (A) (A) (A) (A) (A) (A) (A) (A) (A) (A) (A) (A)
                 (A) (A) (A) (A) (A) (A) (A) (A) (A) (A) (A) (A)
                 (A) (A) (A) (A) (A)
 The electronic state of the initial guess is 1-A.
 Generating alternative initial guess.
 Harris functional with IExCor= 1009 diagonalized for initial guess.
 ExpMin= 8.45D-02 ExpMax= 8.59D+03 ExpMxC= 1.30D+03 IAcc=2 IRadAn=         0 AccDes= 0.00D+00
 HarFok:  IExCor= 1009 AccDes= 0.00D+00 IRadAn=         0 IDoV= 1
 ScaDFX=  1.000000  1.000000  1.000000  1.000000
 FoFCou: FMM=F IPFlag=           0 FMFlag=      100000 FMFlg1=           0
         NFxFlg=           0 DoJE=T BraDBF=F KetDBF=T FulRan=T
         Omega=  0.000000  0.000000  1.000000  0.000000  0.000000 ICntrl=     500 IOpCl=  0
         NMat0=    1 NMatS0=    1 NMatT0=    0 NMatD0=    1 NMtDS0=    0 NMtDT0=    0
         I1Cent=           4 NGrid=           0.
 Petite list used in FoFCou.
 Harris En= -151.475761333084    
 Leave Link  401 at Tue May  8 21:44:35 2018, MaxMem=  671088640 cpu:      26.9
 (Enter /shared/apps/gaussian/G09_LINUX_LINDA/g09/l502.exe)
 Closed shell SCF:
 Requested convergence on RMS density matrix=1.00D-08 within 128 cycles.
 Requested convergence on MAX density matrix=1.00D-06.
 Requested convergence on             energy=1.00D-06.
 No special actions if energy rises.
 Using DIIS extrapolation, IDIIS=  1040.
 Integral symmetry usage will be decided dynamically.
        33624 words used for storage of precomputed grid.
 Keep R1 ints in memory in canonical form, NReq=12863544.
 IEnd=       82034 IEndB=       82034 NGot=   671088640 MDV=   660191035
 LenX=   660191035 LenY=   660181378
 Symmetry not used in FoFDir.
 MinBra= 0 MaxBra= 3 Meth= 1.
 IRaf=       0 NMat=   1 IRICut=       1 DoRegI=T DoRafI=F ISym2E= 0 JSym2E=0.
 Integral accuracy reduced to 1.0D-05 until final iterations.

 Cycle   1  Pass 0  IDiag  1:
 E= -150.014768041700    
 DIIS: error= 1.04D-01 at cycle   1 NSaved=   1.
 NSaved= 1 IEnMin= 1 EnMin= -150.014768041700     IErMin= 1 ErrMin= 1.04D-01
 ErrMax= 1.04D-01 EMaxC= 1.00D-01 BMatC= 9.83D-01 BMatP= 9.83D-01
 IDIUse=3 WtCom= 0.00D+00 WtEn= 1.00D+00
 Coeff-Com:  0.100D+01
 Coeff-En:   0.100D+01
 Coeff:      0.100D+01
 Recover alternate guess density for next cycle.
 RMSDP=1.61D-02 MaxDP=2.50D-01              OVMax= 0.00D+00

 Cycle   2  Pass 0  IDiag  1:
 E= -151.514372444332     Delta-E=       -1.499604402632 Rises=F Damp=F
 DIIS: error= 2.01D-02 at cycle   2 NSaved=   2.
 NSaved= 2 IEnMin= 2 EnMin= -151.514372444332     IErMin= 2 ErrMin= 2.01D-02
 ErrMax= 2.01D-02 EMaxC= 1.00D-01 BMatC= 6.54D-02 BMatP= 9.83D-01
 IDIUse=3 WtCom= 7.99D-01 WtEn= 2.01D-01
 Coeff-Com: -0.471D-01 0.105D+01
 Coeff-En:   0.000D+00 0.100D+01
 Coeff:     -0.376D-01 0.104D+01
 Gap=     0.466 Goal=   None    Shift=    0.000
 RMSDP=2.86D-03 MaxDP=3.46D-02 DE=-1.50D+00 OVMax= 6.58D-02

 Cycle   3  Pass 0  IDiag  1:
 E= -151.528236919745     Delta-E=       -0.013864475413 Rises=F Damp=F
 DIIS: error= 1.59D-02 at cycle   3 NSaved=   3.
 NSaved= 3 IEnMin= 3 EnMin= -151.528236919745     IErMin= 3 ErrMin= 1.59D-02
 ErrMax= 1.59D-02 EMaxC= 1.00D-01 BMatC= 2.47D-02 BMatP= 6.54D-02
 IDIUse=3 WtCom= 8.41D-01 WtEn= 1.59D-01
 Coeff-Com:  0.284D-01 0.316D+00 0.656D+00
 Coeff-En:   0.000D+00 0.310D+00 0.690D+00
 Coeff:      0.239D-01 0.315D+00 0.661D+00
 Gap=     0.450 Goal=   None    Shift=    0.000
 RMSDP=1.37D-03 MaxDP=2.78D-02 DE=-1.39D-02 OVMax= 3.68D-02

 Cycle   4  Pass 0  IDiag  1:
 E= -151.543596907091     Delta-E=       -0.015359987346 Rises=F Damp=F
 DIIS: error= 2.99D-03 at cycle   4 NSaved=   4.
 NSaved= 4 IEnMin= 4 EnMin= -151.543596907091     IErMin= 4 ErrMin= 2.99D-03
 ErrMax= 2.99D-03 EMaxC= 1.00D-01 BMatC= 1.37D-03 BMatP= 2.47D-02
 IDIUse=3 WtCom= 9.70D-01 WtEn= 2.99D-02
 Coeff-Com:  0.789D-03 0.338D-01 0.208D+00 0.757D+00
 Coeff-En:   0.000D+00 0.000D+00 0.000D+00 0.100D+01
 Coeff:      0.765D-03 0.328D-01 0.202D+00 0.765D+00
 Gap=     0.431 Goal=   None    Shift=    0.000
 RMSDP=2.55D-04 MaxDP=5.19D-03 DE=-1.54D-02 OVMax= 7.81D-03

 Cycle   5  Pass 0  IDiag  1:
 E= -151.544528231057     Delta-E=       -0.000931323966 Rises=F Damp=F
 DIIS: error= 5.87D-04 at cycle   5 NSaved=   5.
 NSaved= 5 IEnMin= 5 EnMin= -151.544528231057     IErMin= 5 ErrMin= 5.87D-04
 ErrMax= 5.87D-04 EMaxC= 1.00D-01 BMatC= 3.68D-05 BMatP= 1.37D-03
 IDIUse=3 WtCom= 9.94D-01 WtEn= 5.87D-03
 Coeff-Com: -0.442D-03-0.166D-02 0.343D-01 0.228D+00 0.740D+00
 Coeff-En:   0.000D+00 0.000D+00 0.000D+00 0.000D+00 0.100D+01
 Coeff:     -0.439D-03-0.165D-02 0.341D-01 0.226D+00 0.742D+00
 Gap=     0.431 Goal=   None    Shift=    0.000
 RMSDP=3.74D-05 MaxDP=1.07D-03 DE=-9.31D-04 OVMax= 1.42D-03

 Cycle   6  Pass 0  IDiag  1:
 E= -151.544546553262     Delta-E=       -0.000018322206 Rises=F Damp=F
 DIIS: error= 2.74D-04 at cycle   6 NSaved=   6.
 NSaved= 6 IEnMin= 6 EnMin= -151.544546553262     IErMin= 6 ErrMin= 2.74D-04
 ErrMax= 2.74D-04 EMaxC= 1.00D-01 BMatC= 6.47D-06 BMatP= 3.68D-05
 IDIUse=3 WtCom= 9.97D-01 WtEn= 2.74D-03
 Coeff-Com: -0.197D-03-0.211D-02 0.121D-01 0.101D+00 0.404D+00 0.485D+00
 Coeff-En:   0.000D+00 0.000D+00 0.000D+00 0.000D+00 0.000D+00 0.100D+01
 Coeff:     -0.196D-03-0.210D-02 0.121D-01 0.101D+00 0.403D+00 0.487D+00
 Gap=     0.431 Goal=   None    Shift=    0.000
 RMSDP=1.43D-05 MaxDP=3.24D-04 DE=-1.83D-05 OVMax= 5.90D-04

 Cycle   7  Pass 0  IDiag  1:
 E= -151.544550674583     Delta-E=       -0.000004121320 Rises=F Damp=F
 DIIS: error= 3.82D-05 at cycle   7 NSaved=   7.
 NSaved= 7 IEnMin= 7 EnMin= -151.544550674583     IErMin= 7 ErrMin= 3.82D-05
 ErrMax= 3.82D-05 EMaxC= 1.00D-01 BMatC= 1.63D-07 BMatP= 6.47D-06
 IDIUse=1 WtCom= 1.00D+00 WtEn= 0.00D+00
 Coeff-Com: -0.268D-05 0.262D-05-0.314D-02-0.181D-01-0.563D-01 0.890D-01
 Coeff-Com:  0.989D+00
 Coeff:     -0.268D-05 0.262D-05-0.314D-02-0.181D-01-0.563D-01 0.890D-01
 Coeff:      0.989D+00
 Gap=     0.431 Goal=   None    Shift=    0.000
 RMSDP=4.20D-06 MaxDP=6.39D-05 DE=-4.12D-06 OVMax= 1.35D-04

 Initial convergence to 1.0D-05 achieved.  Increase integral accuracy.
 Cycle   8  Pass 1  IDiag  1:
 E= -151.544632250401     Delta-E=       -0.000081575818 Rises=F Damp=F
 DIIS: error= 1.41D-04 at cycle   1 NSaved=   1.
 NSaved= 1 IEnMin= 1 EnMin= -151.544632250401     IErMin= 1 ErrMin= 1.41D-04
 ErrMax= 1.41D-04 EMaxC= 1.00D-01 BMatC= 2.10D-06 BMatP= 2.10D-06
 IDIUse=3 WtCom= 9.99D-01 WtEn= 1.41D-03
 Coeff-Com:  0.100D+01
 Coeff-En:   0.100D+01
 Coeff:      0.100D+01
 Gap=     0.431 Goal=   None    Shift=    0.000
 RMSDP=4.20D-06 MaxDP=6.39D-05 DE=-8.16D-05 OVMax= 2.14D-04

 Cycle   9  Pass 1  IDiag  1:
 E= -151.544633300353     Delta-E=       -0.000001049952 Rises=F Damp=F
 DIIS: error= 1.39D-05 at cycle   2 NSaved=   2.
 NSaved= 2 IEnMin= 2 EnMin= -151.544633300353     IErMin= 2 ErrMin= 1.39D-05
 ErrMax= 1.39D-05 EMaxC= 1.00D-01 BMatC= 1.91D-08 BMatP= 2.10D-06
 IDIUse=1 WtCom= 1.00D+00 WtEn= 0.00D+00
 Coeff-Com: -0.367D-01 0.104D+01
 Coeff:     -0.367D-01 0.104D+01
 Gap=     0.431 Goal=   None    Shift=    0.000
 RMSDP=2.04D-06 MaxDP=2.85D-05 DE=-1.05D-06 OVMax= 4.79D-05

 Cycle  10  Pass 1  IDiag  1:
 E= -151.544633314145     Delta-E=       -0.000000013792 Rises=F Damp=F
 DIIS: error= 5.99D-06 at cycle   3 NSaved=   3.
 NSaved= 3 IEnMin= 3 EnMin= -151.544633314145     IErMin= 3 ErrMin= 5.99D-06
 ErrMax= 5.99D-06 EMaxC= 1.00D-01 BMatC= 5.60D-09 BMatP= 1.91D-08
 IDIUse=1 WtCom= 1.00D+00 WtEn= 0.00D+00
 Coeff-Com: -0.196D-01 0.355D+00 0.665D+00
 Coeff:     -0.196D-01 0.355D+00 0.665D+00
 Gap=     0.431 Goal=   None    Shift=    0.000
 RMSDP=6.82D-07 MaxDP=1.32D-05 DE=-1.38D-08 OVMax= 2.14D-05

 Cycle  11  Pass 1  IDiag  1:
 E= -151.544633317919     Delta-E=       -0.000000003774 Rises=F Damp=F
 DIIS: error= 2.38D-06 at cycle   4 NSaved=   4.
 NSaved= 4 IEnMin= 4 EnMin= -151.544633317919     IErMin= 4 ErrMin= 2.38D-06
 ErrMax= 2.38D-06 EMaxC= 1.00D-01 BMatC= 5.58D-10 BMatP= 5.60D-09
 IDIUse=1 WtCom= 1.00D+00 WtEn= 0.00D+00
 Coeff-Com: -0.151D-02-0.696D-02 0.208D+00 0.801D+00
 Coeff:     -0.151D-02-0.696D-02 0.208D+00 0.801D+00
 Gap=     0.431 Goal=   None    Shift=    0.000
 RMSDP=2.27D-07 MaxDP=4.30D-06 DE=-3.77D-09 OVMax= 1.00D-05

 Cycle  12  Pass 1  IDiag  1:
 E= -151.544633318465     Delta-E=       -0.000000000546 Rises=F Damp=F
 DIIS: error= 6.33D-07 at cycle   5 NSaved=   5.
 NSaved= 5 IEnMin= 5 EnMin= -151.544633318465     IErMin= 5 ErrMin= 6.33D-07
 ErrMax= 6.33D-07 EMaxC= 1.00D-01 BMatC= 2.72D-11 BMatP= 5.58D-10
 IDIUse=1 WtCom= 1.00D+00 WtEn= 0.00D+00
 Coeff-Com:  0.156D-02-0.348D-01-0.342D-01 0.112D+00 0.955D+00
 Coeff:      0.156D-02-0.348D-01-0.342D-01 0.112D+00 0.955D+00
 Gap=     0.431 Goal=   None    Shift=    0.000
 RMSDP=1.00D-07 MaxDP=8.46D-07 DE=-5.46D-10 OVMax= 4.96D-06

 Cycle  13  Pass 1  IDiag  1:
 E= -151.544633318526     Delta-E=       -0.000000000061 Rises=F Damp=F
 DIIS: error= 1.47D-07 at cycle   6 NSaved=   6.
 NSaved= 6 IEnMin= 6 EnMin= -151.544633318526     IErMin= 6 ErrMin= 1.47D-07
 ErrMax= 1.47D-07 EMaxC= 1.00D-01 BMatC= 3.29D-12 BMatP= 2.72D-11
 IDIUse=1 WtCom= 1.00D+00 WtEn= 0.00D+00
 Coeff-Com:  0.278D-03-0.391D-02-0.208D-01-0.409D-01 0.116D+00 0.950D+00
 Coeff:      0.278D-03-0.391D-02-0.208D-01-0.409D-01 0.116D+00 0.950D+00
 Gap=     0.431 Goal=   None    Shift=    0.000
 RMSDP=3.58D-08 MaxDP=5.04D-07 DE=-6.09D-11 OVMax= 2.03D-06

 Cycle  14  Pass 1  IDiag  1:
 E= -151.544633318532     Delta-E=       -0.000000000006 Rises=F Damp=F
 DIIS: error= 1.71D-07 at cycle   7 NSaved=   7.
 NSaved= 7 IEnMin= 7 EnMin= -151.544633318532     IErMin= 6 ErrMin= 1.47D-07
 ErrMax= 1.71D-07 EMaxC= 1.00D-01 BMatC= 2.68D-12 BMatP= 3.29D-12
 IDIUse=1 WtCom= 1.00D+00 WtEn= 0.00D+00
 Coeff-Com: -0.160D-03 0.505D-02-0.620D-02-0.493D-01-0.129D+00 0.597D+00
 Coeff-Com:  0.583D+00
 Coeff:     -0.160D-03 0.505D-02-0.620D-02-0.493D-01-0.129D+00 0.597D+00
 Coeff:      0.583D+00
 Gap=     0.431 Goal=   None    Shift=    0.000
 RMSDP=1.47D-08 MaxDP=2.26D-07 DE=-5.97D-12 OVMax= 8.35D-07

 Cycle  15  Pass 1  IDiag  1:
 E= -151.544633318534     Delta-E=       -0.000000000002 Rises=F Damp=F
 DIIS: error= 1.99D-08 at cycle   8 NSaved=   8.
 NSaved= 8 IEnMin= 8 EnMin= -151.544633318534     IErMin= 8 ErrMin= 1.99D-08
 ErrMax= 1.99D-08 EMaxC= 1.00D-01 BMatC= 4.45D-14 BMatP= 2.68D-12
 IDIUse=1 WtCom= 1.00D+00 WtEn= 0.00D+00
 Coeff-Com: -0.606D-04 0.117D-02 0.266D-02 0.280D-02-0.245D-01-0.859D-01
 Coeff-Com:  0.189D-01 0.108D+01
 Coeff:     -0.606D-04 0.117D-02 0.266D-02 0.280D-02-0.245D-01-0.859D-01
 Coeff:      0.189D-01 0.108D+01
 Gap=     0.431 Goal=   None    Shift=    0.000
 RMSDP=5.35D-09 MaxDP=4.18D-08 DE=-2.27D-12 OVMax= 3.30D-07

 SCF Done:  E(RM062X) =  -151.544633319     A.U. after   15 cycles
             Convg  =    0.5348D-08             -V/T =  2.0026
 KE= 1.511585948043D+02 PE=-4.337324716871D+02 EE= 9.355457473339D+01
 Leave Link  502 at Tue May  8 21:44:54 2018, MaxMem=  671088640 cpu:     185.5
 (Enter /shared/apps/gaussian/G09_LINUX_LINDA/g09/l701.exe)
 Compute integral first derivatives.
 ... and contract with generalized density number  0.
 Leave Link  701 at Tue May  8 21:44:56 2018, MaxMem=  671088640 cpu:      14.2
 (Enter /shared/apps/gaussian/G09_LINUX_LINDA/g09/l702.exe)
 L702 exits ... SP integral derivatives will be done elsewhere.
 Leave Link  702 at Tue May  8 21:44:56 2018, MaxMem=  671088640 cpu:       0.2
 (Enter /shared/apps/gaussian/G09_LINUX_LINDA/g09/l703.exe)
 Compute integral first derivatives, UseDBF=F ICtDFT=           0.
 Integral derivatives from FoFDir, PRISM(SPDF).
 Calling FoFJK, ICntrl=      2127 FMM=F ISym2X=0 I1Cent= 0 IOpClX= 0 NMat=1 NMatS=1 NMatT=0.
 FoFCou: FMM=F IPFlag=           0 FMFlag=      100000 FMFlg1=         800
         NFxFlg=           0 DoJE=F BraDBF=F KetDBF=F FulRan=T
         Omega=  0.000000  0.000000  1.000000  0.000000  0.000000 ICntrl=    2127 IOpCl=  0
         NMat0=    1 NMatS0=    1 NMatT0=    0 NMatD0=    1 NMtDS0=    0 NMtDT0=    0
         I1Cent=           0 NGrid=           0.
 Symmetry not used in FoFCou.
 Leave Link  703 at Tue May  8 21:44:59 2018, MaxMem=  671088640 cpu:      26.6
 (Enter /shared/apps/gaussian/G09_LINUX_LINDA/g09/l716.exe)
 Dipole        = 5.94751046D-03 8.87855594D-03 7.94384600D-01
 ***** Axes restored to original set *****
 -------------------------------------------------------------------
 Center     Atomic                   Forces (Hartrees/Bohr)
 Number     Number              X              Y              Z
 -------------------------------------------------------------------
      1        8          -0.000836374    0.001508896    0.005662361
      2        8           0.002246635    0.001342710   -0.004467812
      3        1          -0.000159460   -0.001041299   -0.003777799
      4        1          -0.001250802   -0.001810306    0.002583250
 -------------------------------------------------------------------
 Cartesian Forces:  Max     0.005662361 RMS     0.002719476
 Leave Link  716 at Tue May  8 21:44:59 2018, MaxMem=  671088640 cpu:       0.3
 (Enter /shared/apps/gaussian/G09_LINUX_LINDA/g09/l103.exe)

 GradGradGradGradGradGradGradGradGradGradGradGradGradGradGradGradGradGrad
 Berny optimization.
 Using GDIIS optimizer.
 Internal  Forces:  Max     0.004855711 RMS     0.002764243
 Search for a local minimum.
 Step number   3 out of a maximum of   20
 All quantities printed in internal units (Hartrees-Bohrs-Radians)
 Swaping is turned off.
 Update second derivatives using D2CorX and points    1    2    3
 DE= -1.49D-03 DEPred=-1.51D-03 R= 9.90D-01
 SS=  1.41D+00  RLast= 1.81D-01 DXNew= 8.4853D-01 5.4353D-01
 Trust test= 9.90D-01 RLast= 1.81D-01 DXMaxT set to 5.44D-01
 The second derivative matrix:
                          R1        R2        R3        A1        A2
           R1           0.45816
           R2          -0.00551   0.51829
           R3          -0.00721   0.01001   0.51539
           A1           0.06803  -0.00382  -0.00138   0.22486
           A2           0.04256  -0.00472  -0.00555  -0.01595   0.15402
           D1          -0.02420   0.00317   0.00373   0.00881   0.00305
                          D1
           D1           0.02272
 ITU=  1  1  0
     Eigenvalues ---    0.02015   0.14030   0.21747   0.47929   0.50682
     Eigenvalues ---    0.52941
 DIIS coeff's:      0.96516      0.11950     -0.08466
 Cosine:  0.997 >  0.840
 Length:  0.877
 GDIIS step was calculated using  3 of the last  3 vectors.
 Iteration  1 RMS(Cart)=  0.02248630 RMS(Int)=  0.00061656
 Iteration  2 RMS(Cart)=  0.00047705 RMS(Int)=  0.00000020
 Iteration  3 RMS(Cart)=  0.00000025 RMS(Int)=  0.00000000
 Variable       Old X    -DE/DX   Delta X   Delta X   Delta X     New X
                                  (DIIS)     (GDIIS)  (Total)
    R1        2.67481   0.00009   0.00755  -0.00008   0.00747   2.68228
    R2        1.81524   0.00274  -0.00229   0.00648   0.00419   1.81943
    R3        1.81440   0.00316  -0.00285   0.00785   0.00501   1.81941
    A1        1.80118  -0.00486  -0.01791  -0.00803  -0.02594   1.77524
    A2        1.78726  -0.00183  -0.00100  -0.01469  -0.01569   1.77156
    D1        1.82955   0.00119   0.00062   0.06285   0.06347   1.89301
         Item               Value     Threshold  Converged?
 Maximum Force            0.004856     0.000002     NO 
 RMS     Force            0.002764     0.000001     NO 
 Maximum Displacement     0.022903     0.000006     NO 
 RMS     Displacement     0.022683     0.000004     NO 
 Predicted change in Energy=-1.445533D-04
 GradGradGradGradGradGradGradGradGradGradGradGradGradGradGradGradGradGrad

 Leave Link  103 at Tue May  8 21:45:01 2018, MaxMem=  671088640 cpu:      19.8
 (Enter /shared/apps/gaussian/G09_LINUX_LINDA/g09/l202.exe)
                          Input orientation:                          
 ---------------------------------------------------------------------
 Center     Atomic      Atomic             Coordinates (Angstroms)
 Number     Number       Type             X           Y           Z
 ---------------------------------------------------------------------
      1          8           0        0.600662    0.241396    0.399213
      2          8           0       -0.608889    0.306695   -0.340671
      3          1           0        1.174293   -0.239868   -0.206029
      4          1           0       -1.166067   -0.308223    0.147586
 ---------------------------------------------------------------------
                    Distance matrix (angstroms):
                    1          2          3          4
     1  O    0.000000
     2  O    1.419404   0.000000
     3  H    0.962801   1.869919   0.000000
     4  H    1.867278   0.962790   2.367911   0.000000
 Stoichiometry    H2O2
 Framework group  C1[X(H2O2)]
 Deg. of freedom     6
 Full point group                 C1      NOp   1
 Largest Abelian subgroup         C1      NOp   1
 Largest concise Abelian subgroup C1      NOp   1
                         Standard orientation:                         
 ---------------------------------------------------------------------
 Center     Atomic      Atomic             Coordinates (Angstroms)
 Number     Number       Type             X           Y           Z
 ---------------------------------------------------------------------
      1          8           0        0.700789    0.110728   -0.061556
      2          8           0       -0.701176   -0.111086   -0.060946
      3          1           0        1.013468   -0.613192    0.490855
      4          1           0       -1.010374    0.616061    0.489161
 ---------------------------------------------------------------------
 Rotational constants (GHZ):    308.1254632     27.3914289     26.6859996
 Leave Link  202 at Tue May  8 21:45:01 2018, MaxMem=  671088640 cpu:       0.8
 (Enter /shared/apps/gaussian/G09_LINUX_LINDA/g09/l301.exe)
 Standard basis: 6-311+G(2df,2p) (5D, 7F)
 Ernie: Thresh=  0.10000D-02 Tol=  0.10000D-05 Strict=F.
 There are    86 symmetry adapted basis functions of A   symmetry.
 Integral buffers will be    131072 words long.
 Raffenetti 2 integral format.
 Two-electron integral symmetry is turned on.
    86 basis functions,   126 primitive gaussians,    96 cartesian basis functions
     9 alpha electrons        9 beta electrons
       nuclear repulsion energy        37.4088649733 Hartrees.
 IExCor= 4336 DFT=T Ex+Corr=M062X ExCW=0 ScaHFX=  0.540000
 ScaDFX=  1.000000  1.000000  1.000000  1.000000 ScalE2=  1.000000  1.000000
 IRadAn=      0 IRanWt=     -1 IRanGd=            0 ICorTp=0
 NAtoms=    4 NActive=    4 NUniq=    4 SFac= 1.00D+00 NAtFMM=   50 NAOKFM=F Big=F
 Leave Link  301 at Tue May  8 21:45:02 2018, MaxMem=  671088640 cpu:       1.0
 (Enter /shared/apps/gaussian/G09_LINUX_LINDA/g09/l302.exe)
 NPDir=0 NMtPBC=     1 NCelOv=     1 NCel=       1 NClECP=     1 NCelD=      1
         NCelK=      1 NCelE2=     1 NClLst=     1 CellRange=     0.0.
 One-electron integrals computed using PRISM.
 NBasis=    86 RedAO= T  NBF=    86
 NBsUse=    86 1.00D-06 NBFU=    86
 Precomputing XC quadrature grid using
 IXCGrd= 2 IRadAn=           0 IRanWt=          -1 IRanGd=           0 AccXCQ= 0.00D+00.
 NRdTot=     252 NPtTot=       31844 NUsed=       33673 NTot=       33705
 NSgBfM=    96    96    96    96    96 NAtAll=     4     4.
 Leave Link  302 at Tue May  8 21:45:02 2018, MaxMem=  671088640 cpu:       8.1
 (Enter /shared/apps/gaussian/G09_LINUX_LINDA/g09/l303.exe)
 DipDrv:  MaxL=1.
 Leave Link  303 at Tue May  8 21:45:03 2018, MaxMem=  671088640 cpu:       2.6
 (Enter /shared/apps/gaussian/G09_LINUX_LINDA/g09/l401.exe)
 Initial guess read from the read-write file.
 B after Tr=     0.000000    0.000000    0.000000
         Rot=    1.000000    0.000000    0.000000    0.000000 Ang=   0.00 deg.
 Guess basis will be translated and rotated to current coordinates.
 Initial guess orbital symmetries:
       Occupied  (A) (A) (A) (A) (A) (A) (A) (A) (A)
       Virtual   (A) (A) (A) (A) (A) (A) (A) (A) (A) (A) (A) (A)
                 (A) (A) (A) (A) (A) (A) (A) (A) (A) (A) (A) (A)
                 (A) (A) (A) (A) (A) (A) (A) (A) (A) (A) (A) (A)
                 (A) (A) (A) (A) (A) (A) (A) (A) (A) (A) (A) (A)
                 (A) (A) (A) (A) (A) (A) (A) (A) (A) (A) (A) (A)
                 (A) (A) (A) (A) (A) (A) (A) (A) (A) (A) (A) (A)
                 (A) (A) (A) (A) (A)
 The electronic state of the initial guess is 1-A.
 Generating alternative initial guess.
 Harris functional with IExCor= 1009 diagonalized for initial guess.
 ExpMin= 8.45D-02 ExpMax= 8.59D+03 ExpMxC= 1.30D+03 IAcc=2 IRadAn=         0 AccDes= 0.00D+00
 HarFok:  IExCor= 1009 AccDes= 0.00D+00 IRadAn=         0 IDoV= 1
 ScaDFX=  1.000000  1.000000  1.000000  1.000000
 FoFCou: FMM=F IPFlag=           0 FMFlag=      100000 FMFlg1=           0
         NFxFlg=           0 DoJE=T BraDBF=F KetDBF=T FulRan=T
         Omega=  0.000000  0.000000  1.000000  0.000000  0.000000 ICntrl=     500 IOpCl=  0
         NMat0=    1 NMatS0=    1 NMatT0=    0 NMatD0=    1 NMtDS0=    0 NMtDT0=    0
         I1Cent=           4 NGrid=           0.
 Petite list used in FoFCou.
 Harris En= -151.475609898906    
 Leave Link  401 at Tue May  8 21:45:06 2018, MaxMem=  671088640 cpu:      29.5
 (Enter /shared/apps/gaussian/G09_LINUX_LINDA/g09/l502.exe)
 Closed shell SCF:
 Requested convergence on RMS density matrix=1.00D-08 within 128 cycles.
 Requested convergence on MAX density matrix=1.00D-06.
 Requested convergence on             energy=1.00D-06.
 No special actions if energy rises.
 Using DIIS extrapolation, IDIIS=  1040.
 Integral symmetry usage will be decided dynamically.
        33624 words used for storage of precomputed grid.
 Keep R1 ints in memory in canonical form, NReq=12863544.
 IEnd=       82034 IEndB=       82034 NGot=   671088640 MDV=   660191035
 LenX=   660191035 LenY=   660181378
 Symmetry not used in FoFDir.
 MinBra= 0 MaxBra= 3 Meth= 1.
 IRaf=       0 NMat=   1 IRICut=       1 DoRegI=T DoRafI=F ISym2E= 0 JSym2E=0.
 Integral accuracy reduced to 1.0D-05 until final iterations.

 Cycle   1  Pass 0  IDiag  1:
 E= -151.544386094514    
 DIIS: error= 1.57D-03 at cycle   1 NSaved=   1.
 NSaved= 1 IEnMin= 1 EnMin= -151.544386094514     IErMin= 1 ErrMin= 1.57D-03
 ErrMax= 1.57D-03 EMaxC= 1.00D-01 BMatC= 3.22D-04 BMatP= 3.22D-04
 IDIUse=3 WtCom= 9.84D-01 WtEn= 1.57D-02
 Coeff-Com:  0.100D+01
 Coeff-En:   0.100D+01
 Coeff:      0.100D+01
 Gap=     0.431 Goal=   None    Shift=    0.000
 GapD=    0.431 DampG=2.000 DampE=1.000 DampFc=2.0000 IDamp=-1.
 RMSDP=2.09D-04 MaxDP=2.69D-03              OVMax= 6.23D-03

 Cycle   2  Pass 0  IDiag  1:
 E= -151.544723764388     Delta-E=       -0.000337669874 Rises=F Damp=F
 DIIS: error= 1.86D-04 at cycle   2 NSaved=   2.
 NSaved= 2 IEnMin= 2 EnMin= -151.544723764388     IErMin= 2 ErrMin= 1.86D-04
 ErrMax= 1.86D-04 EMaxC= 1.00D-01 BMatC= 8.63D-06 BMatP= 3.22D-04
 IDIUse=3 WtCom= 9.98D-01 WtEn= 1.86D-03
 Coeff-Com: -0.125D+00 0.112D+01
 Coeff-En:   0.000D+00 0.100D+01
 Coeff:     -0.125D+00 0.112D+01
 Gap=     0.428 Goal=   None    Shift=    0.000
 RMSDP=5.36D-05 MaxDP=7.54D-04 DE=-3.38D-04 OVMax= 1.91D-03

 Cycle   3  Pass 0  IDiag  1:
 E= -151.544737535051     Delta-E=       -0.000013770663 Rises=F Damp=F
 DIIS: error= 1.28D-04 at cycle   3 NSaved=   3.
 NSaved= 3 IEnMin= 3 EnMin= -151.544737535051     IErMin= 3 ErrMin= 1.28D-04
 ErrMax= 1.28D-04 EMaxC= 1.00D-01 BMatC= 2.05D-06 BMatP= 8.63D-06
 IDIUse=3 WtCom= 9.99D-01 WtEn= 1.28D-03
 Coeff-Com: -0.540D-01 0.388D+00 0.666D+00
 Coeff-En:   0.000D+00 0.000D+00 0.100D+01
 Coeff:     -0.540D-01 0.388D+00 0.666D+00
 Gap=     0.428 Goal=   None    Shift=    0.000
 RMSDP=1.41D-05 MaxDP=2.90D-04 DE=-1.38D-05 OVMax= 4.85D-04

 Cycle   4  Pass 0  IDiag  1:
 E= -151.544738797524     Delta-E=       -0.000001262473 Rises=F Damp=F
 DIIS: error= 9.09D-05 at cycle   4 NSaved=   4.
 NSaved= 4 IEnMin= 4 EnMin= -151.544738797524     IErMin= 4 ErrMin= 9.09D-05
 ErrMax= 9.09D-05 EMaxC= 1.00D-01 BMatC= 7.22D-07 BMatP= 2.05D-06
 IDIUse=1 WtCom= 1.00D+00 WtEn= 0.00D+00
 Coeff-Com:  0.334D-02-0.872D-01 0.363D+00 0.721D+00
 Coeff:      0.334D-02-0.872D-01 0.363D+00 0.721D+00
 Gap=     0.428 Goal=   None    Shift=    0.000
 RMSDP=9.29D-06 MaxDP=1.03D-04 DE=-1.26D-06 OVMax= 3.03D-04

 Initial convergence to 1.0D-05 achieved.  Increase integral accuracy.
 Cycle   5  Pass 1  IDiag  1:
 E= -151.544776467298     Delta-E=       -0.000037669774 Rises=F Damp=F
 DIIS: error= 1.35D-04 at cycle   1 NSaved=   1.
 NSaved= 1 IEnMin= 1 EnMin= -151.544776467298     IErMin= 1 ErrMin= 1.35D-04
 ErrMax= 1.35D-04 EMaxC= 1.00D-01 BMatC= 2.03D-06 BMatP= 2.03D-06
 IDIUse=3 WtCom= 9.99D-01 WtEn= 1.35D-03
 Coeff-Com:  0.100D+01
 Coeff-En:   0.100D+01
 Coeff:      0.100D+01
 Gap=     0.428 Goal=   None    Shift=    0.000
 RMSDP=9.29D-06 MaxDP=1.03D-04 DE=-3.77D-05 OVMax= 2.62D-04

 Cycle   6  Pass 1  IDiag  1:
 E= -151.544777483091     Delta-E=       -0.000001015793 Rises=F Damp=F
 DIIS: error= 2.26D-05 at cycle   2 NSaved=   2.
 NSaved= 2 IEnMin= 2 EnMin= -151.544777483091     IErMin= 2 ErrMin= 2.26D-05
 ErrMax= 2.26D-05 EMaxC= 1.00D-01 BMatC= 7.20D-08 BMatP= 2.03D-06
 IDIUse=1 WtCom= 1.00D+00 WtEn= 0.00D+00
 Coeff-Com:  0.741D-02 0.993D+00
 Coeff:      0.741D-02 0.993D+00
 Gap=     0.428 Goal=   None    Shift=    0.000
 RMSDP=3.21D-06 MaxDP=8.91D-05 DE=-1.02D-06 OVMax= 1.05D-04

 Cycle   7  Pass 1  IDiag  1:
[...]
 Traceless Quadrupole moment (field-independent basis, Debye-Ang):
   XX=              0.5518   YY=              0.2922   ZZ=             -0.8441
   XY=             -3.1699   XZ=              0.0000   YZ=              0.0000
 Octapole moment (field-independent basis, Debye-Ang**2):
  XXX=              0.0000  YYY=              0.0000  ZZZ=              1.1070  XYY=              0.0000
  XXY=              0.0000  XXZ=              2.5465  XZZ=              0.0000  YZZ=              0.0000
  YYZ=              0.9361  XYZ=             -1.5724
 Hexadecapole moment (field-independent basis, Debye-Ang**3):
 XXXX=            -42.7884 YYYY=            -11.7100 ZZZZ=            -11.4035 XXXY=             -4.3326
 XXXZ=              0.0000 YYYX=             -2.7959 YYYZ=              0.0000 ZZZX=              0.0000
 ZZZY=              0.0000 XXYY=             -8.8082 XXZZ=             -9.7941 YYZZ=             -3.5442
 XXYZ=              0.0000 YYXZ=              0.0000 ZZXY=             -1.1672
 N-N= 3.739161485005D+01 E-N=-4.335683447964D+02  KE= 1.511474214001D+02
  Exact polarizability:  16.978  -0.895  11.533   0.000   0.000  10.803
 Approx polarizability:  18.321  -0.678  12.728   0.000   0.000  11.526
 No NMR shielding tensors so no spin-rotation constants.
 Leave Link  601 at Tue May  8 21:48:14 2018, MaxMem=  671088640 cpu:       9.5
 (Enter /shared/apps/gaussian/G09_LINUX_LINDA/g09/l701.exe)
 Compute integral second derivatives.
 ... and contract with generalized density number  0.
 Leave Link  701 at Tue May  8 21:48:16 2018, MaxMem=  671088640 cpu:      14.6
 (Enter /shared/apps/gaussian/G09_LINUX_LINDA/g09/l702.exe)
 L702 exits ... SP integral derivatives will be done elsewhere.
 Leave Link  702 at Tue May  8 21:48:16 2018, MaxMem=  671088640 cpu:       0.3
 (Enter /shared/apps/gaussian/G09_LINUX_LINDA/g09/l703.exe)
 Compute integral second derivatives, UseDBF=F ICtDFT=           0.
 Integral derivatives from FoFDir, PRISM(SPDF).
 Calling FoFJK, ICntrl=    100127 FMM=F ISym2X=0 I1Cent= 0 IOpClX= 0 NMat=1 NMatS=1 NMatT=0.
 FoFCou: FMM=F IPFlag=           0 FMFlag=      100000 FMFlg1=         800
         NFxFlg=           0 DoJE=F BraDBF=F KetDBF=F FulRan=T
         Omega=  0.000000  0.000000  1.000000  0.000000  0.000000 ICntrl=  100127 IOpCl=  0
         NMat0=    1 NMatS0=    1 NMatT0=    0 NMatD0=    1 NMtDS0=    0 NMtDT0=    0
         I1Cent=           0 NGrid=           0.
 Symmetry not used in FoFCou.
 Leave Link  703 at Tue May  8 21:48:26 2018, MaxMem=  671088640 cpu:     104.7
 (Enter /shared/apps/gaussian/G09_LINUX_LINDA/g09/l716.exe)
 Dipole        =-4.60873854D-08 6.04180000D-08 7.16240833D-01
 Polarizability= 1.69782442D+01-8.94937086D-01 1.15327726D+01
                -2.05904576D-07 2.35498272D-07 1.08033905D+01
 Full mass-weighted force constant matrix:
 Low frequencies ---  -99.3666   -0.0013   -0.0011    0.0004   42.6891   47.6232
 Low frequencies ---  385.0433 1048.0015 1369.6375
 Harmonic frequencies (cm**-1), IR intensities (KM/Mole), Raman scattering
 activities (A**4/AMU), depolarization ratios for plane and unpolarized
 incident light, reduced masses (AMU), force constants (mDyne/A),
 and normal coordinates:
                     1                      2                      3
                     A                      A                      A
 Frequencies --   385.0224              1048.0012              1369.6351
 Red. masses --     1.0831                14.5991                 1.1078
 Frc consts  --     0.0946                 9.4471                 1.2244
 IR Inten    --   189.4266                 0.8651                99.9460
  Atom  AN      X      Y      Z        X      Y      Z        X      Y      Z
     1   8     0.00  -0.03   0.04     0.66   0.12   0.01     0.04   0.01   0.04
     2   8     0.00   0.03   0.04    -0.66  -0.12   0.01     0.04   0.01  -0.04
     3   1    -0.04   0.38  -0.59    -0.04  -0.06  -0.20    -0.67  -0.21  -0.07
     4   1     0.04  -0.38  -0.59     0.04   0.06  -0.20    -0.67  -0.21   0.07
                     4                      5                      6
                     A                      A                      A
 Frequencies --  1485.2258              3855.9343              3856.6795
 Red. masses --     1.0923                 1.0673                 1.0695
 Frc consts  --     1.4196                 9.3495                 9.3722
 IR Inten    --     0.3113                78.8273                22.2232
  Atom  AN      X      Y      Z        X      Y      Z        X      Y      Z
     1   8     0.01  -0.05  -0.01    -0.01   0.03   0.02    -0.02   0.03   0.02
     2   8    -0.01   0.05  -0.01    -0.01   0.03  -0.02     0.02  -0.04   0.02
     3   1     0.68   0.16   0.09     0.23  -0.55  -0.38     0.23  -0.55  -0.38
     4   1    -0.68  -0.16   0.09     0.23  -0.55   0.38    -0.23   0.55  -0.38

 -------------------
 - Thermochemistry -
 -------------------
 Temperature   298.150 Kelvin.  Pressure   1.00000 Atm.
 Atom     1 has atomic number  8 and mass  15.99491
 Atom     2 has atomic number  8 and mass  15.99491
 Atom     3 has atomic number  1 and mass   1.00783
 Atom     4 has atomic number  1 and mass   1.00783
 Molecular mass:    34.00548 amu.
 Principal axes and moments of inertia in atomic units:
                           1         2         3
     Eigenvalues --     5.84944  65.71559  67.95385
           X            0.99707  -0.07652   0.00000
           Y            0.07652   0.99707   0.00000
           Z            0.00000   0.00000   1.00000
 This molecule is an asymmetric top.
 Rotational symmetry number  1.
 Rotational temperatures (Kelvin)     14.80719     1.31801     1.27460
 Rotational constants (GHZ):         308.53210    27.46291    26.55834
 Zero-point vibrational energy      71778.9 (Joules/Mol)
                                   17.15557 (Kcal/Mol)
 Warning -- explicit consideration of   1 degrees of freedom as
           vibrations may cause significant error
 Vibrational temperatures:    553.96  1507.84  1970.60  2136.91  5547.82
          (Kelvin)           5548.89
 
 Zero-point correction=                           0.027339 (Hartree/Particle)
 Thermal correction to Energy=                    0.030540
 Thermal correction to Enthalpy=                  0.031484
 Thermal correction to Gibbs Free Energy=         0.005095
 Sum of electronic and zero-point Energies=           -151.517474
 Sum of electronic and thermal Energies=              -151.514273
 Sum of electronic and thermal Enthalpies=            -151.513329
 Sum of electronic and thermal Free Energies=         -151.539718
 
                     E (Thermal)             CV                S
                      KCal/Mol        Cal/Mol-Kelvin    Cal/Mol-Kelvin
 Total                   19.164              7.988             55.541
 Electronic               0.000              0.000              0.000
 Translational            0.889              2.981             36.503
 Rotational               0.889              2.981             17.908
 Vibrational             17.387              2.026              1.129
 Vibration     1          0.754              1.502              1.019
                       Q            Log10(Q)             Ln(Q)
 Total Bot       0.453272D-02         -2.343641         -5.396433
 Total V=0       0.170399D+11         10.231466         23.558822
 Vib (Bot)       0.317860D-12        -12.497765        -28.777167
 Vib (Bot)    1  0.467942D+00         -0.329808         -0.759411
 Vib (V=0)       0.119493D+01          0.077343          0.178089
 Vib (V=0)    1  0.118481D+01          0.073650          0.169585
 Electronic      0.100000D+01          0.000000          0.000000
 Translational   0.779433D+07          6.891779         15.868907
 Rotational      0.182955D+04          3.262345          7.511827
 
                                                    Gaussian input prepared by AS
 E
                                                             IR Spectrum
 
     33                                                                             1  1          1                                  
     88                                                                             4  3          0                     3            
     55                                                                             8  7          4                     8            
     76                                                                             5  0          8                     5            
 
     XX                                                                             X  X          X                     X            
     XX                                                                                X                                X            
      X                                                                                X                                X            
      X                                                                                X                                X            
      X                                                                                X                                X            
      X                                                                                X                                X            
      X                                                                                X                                X            
      X                                                                                X                                X            
                                                                                       X                                X            
                                                                                       X                                X            
                                                                                       X                                X            
                                                                                                                        X            
                                                                                                                        X            
                                                                                                                        X            
                                                                                                                        X            
                                                                                                                        X            
                                                                                                                        X            
                                                                                                                        X            
                                                                                                                        X            
                                                                                                                        X            
 
 ***** Axes restored to original set *****
 -------------------------------------------------------------------
 Center     Atomic                   Forces (Hartrees/Bohr)
 Number     Number              X              Y              Z
 -------------------------------------------------------------------
      1        8           0.000006117    0.000001319   -0.000010279
      2        8          -0.000006073   -0.000001026    0.000010275
      3        1          -0.000002996    0.000002040   -0.000020436
      4        1           0.000002952   -0.000002332    0.000020440
 -------------------------------------------------------------------
 Cartesian Forces:  Max     0.000020440 RMS     0.000009794
 Force constants in Cartesian coordinates: 
                1             2             3             4             5 
      1  0.484256D+00
      2 -0.145427D+00  0.136684D+00
      3 -0.742862D-01  0.170916D+00  0.368525D+00
      4 -0.249014D+00  0.308552D-01 -0.991723D-01  0.476225D+00
      5 -0.147356D-01 -0.229988D-01 -0.430966D-02  0.165067D+00  0.226746D+00
      6 -0.104434D+00  0.220879D-01 -0.116674D+00 -0.358050D-01 -0.204225D+00
      7 -0.200052D+00  0.130532D+00  0.161100D+00 -0.354097D-01  0.120334D-01
      8  0.151063D+00 -0.116912D+00 -0.162967D+00 -0.184586D-02 -0.677573D-03
      9  0.215884D+00 -0.175648D+00 -0.259230D+00 -0.387628D-01  0.145856D-01
     10 -0.351903D-01 -0.159597D-01  0.123585D-01 -0.191802D+00 -0.162365D+00
     11  0.910004D-02  0.322717D-02 -0.363964D-02 -0.194076D+00 -0.203070D+00
     12 -0.371636D-01 -0.173552D-01  0.737855D-02  0.173740D+00  0.193949D+00
                6             7             8             9            10 
      6  0.286494D+00
      7  0.152991D-01  0.240616D+00
      8  0.220707D-02 -0.145988D+00  0.116077D+00
      9  0.115027D-01 -0.175063D+00  0.160559D+00  0.249641D+00
     10  0.124940D+00 -0.515399D-02 -0.322920D-02 -0.205814D-02  0.232146D+00
     11  0.179930D+00  0.342254D-02  0.151211D-02  0.503559D-03  0.181553D+00
     12 -0.181323D+00 -0.133626D-02  0.200131D-03 -0.191389D-02 -0.135240D+00
               11            12 
     11  0.198330D+00
     12 -0.176794D+00  0.175858D+00
 Force constants in internal coordinates: 
                1             2             3             4             5 
      1  0.376240D+00
      2 -0.390501D-02  0.533554D+00
      3 -0.390501D-02 -0.802694D-04  0.533554D+00
      4  0.740201D-01 -0.944805D-03  0.334595D-03  0.233579D+00
      5  0.740201D-01  0.334595D-03 -0.944802D-03  0.192931D-01  0.233579D+00
      6 -0.120666D-02  0.176887D-02  0.176886D-02  0.872660D-02  0.872660D-02
                6 
      6  0.930127D-02
 Leave Link  716 at Tue May  8 21:48:27 2018, MaxMem=  671088640 cpu:       3.6
 (Enter /shared/apps/gaussian/G09_LINUX_LINDA/g09/l103.exe)

 GradGradGradGradGradGradGradGradGradGradGradGradGradGradGradGradGradGrad
 Berny optimization.
 Red2BG is reusing G-inverse.
 Internal  Forces:  Max     0.000000354 RMS     0.000000217
 Search for a local minimum.
 Step number   1 out of a maximum of    2
 All quantities printed in internal units (Hartrees-Bohrs-Radians)
 Swaping is turned off.
 Second derivative matrix not updated -- analytic derivatives used.
 The second derivative matrix:
                          R1        R2        R3        A1        A2
           R1           0.37624
           R2          -0.00391   0.53355
           R3          -0.00391  -0.00008   0.53355
           A1           0.07402  -0.00094   0.00033   0.23358
           A2           0.07402   0.00033  -0.00094   0.01929   0.23358
           D1          -0.00121   0.00177   0.00177   0.00873   0.00873
                          D1
           D1           0.00930
 ITU=  0
     Eigenvalues ---    0.00854   0.19373   0.21428   0.43586   0.53364
     Eigenvalues ---    0.53376
 Angle between quadratic step and forces=  66.19 degrees.
 Linear search not attempted -- option 19 set.
 Iteration  1 RMS(Cart)=  0.00000148 RMS(Int)=  0.00000000
 Iteration  2 RMS(Cart)=  0.00000000 RMS(Int)=  0.00000000
 Variable       Old X    -DE/DX   Delta X   Delta X   Delta X     New X
                                 (Linear)    (Quad)   (Total)
    R1        2.68353   0.00000   0.00000   0.00000   0.00000   2.68353
    R2        1.81989   0.00000   0.00000   0.00000   0.00000   1.81989
    R3        1.81989   0.00000   0.00000   0.00000   0.00000   1.81989
    A1        1.77292   0.00000   0.00000   0.00000   0.00000   1.77292
    A2        1.77292   0.00000   0.00000   0.00000   0.00000   1.77292
    D1        1.98323   0.00000   0.00000   0.00000   0.00000   1.98323
         Item               Value     Threshold  Converged?
 Maximum Force            0.000000     0.000002     YES
 RMS     Force            0.000000     0.000001     YES
 Maximum Displacement     0.000002     0.000006     YES
 RMS     Displacement     0.000001     0.000004     YES
 Predicted change in Energy=-4.060813D-13
 Optimization completed.
    -- Stationary point found.
                           ----------------------------
                           !   Optimized Parameters   !
                           ! (Angstroms and Degrees)  !
 --------------------------                            --------------------------
 ! Name  Definition              Value          Derivative Info.                !
 --------------------------------------------------------------------------------
 ! R1    R(1,2)                  1.4201         -DE/DX =    0.0                 !
 ! R2    R(1,3)                  0.963          -DE/DX =    0.0                 !
 ! R3    R(2,4)                  0.963          -DE/DX =    0.0                 !
 ! A1    A(2,1,3)              101.5807         -DE/DX =    0.0                 !
 ! A2    A(1,2,4)              101.5807         -DE/DX =    0.0                 !
 ! D1    D(3,1,2,4)            113.6305         -DE/DX =    0.0                 !
 --------------------------------------------------------------------------------
 GradGradGradGradGradGradGradGradGradGradGradGradGradGradGradGradGradGrad

 Leave Link  103 at Tue May  8 21:48:28 2018, MaxMem=  671088640 cpu:      10.1
 (Enter /shared/apps/gaussian/G09_LINUX_LINDA/g09/l9999.exe)

 Test job not archived.
 1\1\GINC-COMPUTE-3-045\Freq\RM062X\6-311+G(2df,2p)\H2O2\ROOT\08-May-20
 18\0\\#P Geom=AllCheck Guess=TCheck SCRF=Check Test GenChk RM062X/6-31
 1+G(2df,2p) Freq\\Gaussian input prepared by ASE\\0,1\O,0.5974369839,0
 .2237376576,0.404769659\O,-0.6040634286,0.2896210864,-0.3493097698\H,1
 .188391022,-0.2215258446,-0.2116467049\H,-1.1817645773,-0.2918328994,0
 .1562868157\\Version=EM64L-G09RevB.01\State=1-A\HF=-151.5448131\RMSD=2
 .068e-10\RMSF=9.794e-06\ZeroPoint=0.0273391\Thermal=0.0305401\Dipole=0
 .0091911,-0.7120461,-0.0768554\DipoleDeriv=-0.2673625,-0.0561586,0.001
 7329,0.0428082,-0.3373868,0.1399601,0.0300304,0.0893987,-0.2052144,-0.
 2676446,0.0551953,0.0176578,-0.0473906,-0.2833742,-0.1568026,0.0228897
 ,-0.1058084,-0.2589449,0.2668767,0.0280147,-0.0057852,0.0231068,0.3266
 06,-0.0625285,-0.0232637,-0.0636121,0.2164809,0.2681303,-0.0270513,-0.
 0136056,-0.0185244,0.2941551,0.079371,-0.0296564,0.0800218,0.2476783\P
 olar=16.79538,-0.0658304,10.8112292,1.3264731,-0.080496,11.7077981\PG=
 C01 [X(H2O2)]\NImag=0\\0.48425613,-0.14542745,0.13668357,-0.07428615,0
 .17091581,0.36852521,-0.24901386,0.03085518,-0.09917228,0.47622548,-0.
 01473561,-0.02299884,-0.00430966,0.16506673,0.22674603,-0.10443389,0.0
 2208793,-0.11667355,-0.03580498,-0.20422536,0.28649358,-0.20005198,0.1
 3053197,0.16109991,-0.03540968,0.01203345,0.01529908,0.24061564,0.1510
 6301,-0.11691190,-0.16296651,-0.00184586,-0.00067757,0.00220707,-0.145
 98795,0.11607736,0.21588362,-0.17564849,-0.25923022,-0.03876276,0.0145
 8563,0.01150269,-0.17506273,0.16055930,0.24964142,-0.03519029,-0.01595
 971,0.01235852,-0.19180195,-0.16236457,0.12493980,-0.00515399,-0.00322
 920,-0.00205814,0.23214622,0.00910004,0.00322717,-0.00363964,-0.194076
 05,-0.20306962,0.17993035,0.00342254,0.00151211,0.00050356,0.18155347,
 0.19833034,-0.03716358,-0.01735525,0.00737855,0.17374002,0.19394939,-0
 .18132272,-0.00133626,0.00020013,-0.00191389,-0.13524018,-0.17679427,0
 .17585805\\-0.00000612,-0.00000132,0.00001028,0.00000607,0.00000103,-0
 .00001027,0.00000300,-0.00000204,0.00002044,-0.00000295,0.00000233,-0.
 00002044\\\@


 MAN IS A SINGULAR CREATURE.  HE HAS A SET OF GIFTS
 WHICH MAKE HIM UNIQUE AMONG THE ANIMALS: SO THAT, 
 UNLIKE THEM, HE IS NOT A FIGURE IN THE LANDSCAPE --
 HE IS A SHAPER OF THE LANDSCAPE.

                       -- JACOB BRONOWSKI
 Job cpu time:  0 days  0 hours  7 minutes 32.3 seconds.
 File lengths (MBytes):  RWF=     75 Int=      0 D2E=      0 Chk=      2 Scr=      1
 Normal termination of Gaussian 09 at Tue May  8 21:48:28 2018.
