 Entering Gaussian System, Link 0=/shared/apps/gaussian/G09_LINUX_LINDA/g09/g09
 Input=/gss_gpfs_scratch/harms.n/QMscratch/BKOOMYPCSUNDGP-UHFFFAOYSA.gjf
 Output=/gss_gpfs_scratch/harms.n/QMscratch/BKOOMYPCSUNDGP-UHFFFAOYSA.log
 Initial command:
 /shared/apps/gaussian/G09_LINUX_LINDA/g09/l1.exe /gss_gpfs_scratch/harms.n/comparerTST/Gau-28037.inp -scrdir=/gss_gpfs_scratch/harms.n/comparerTST/
 Entering Link 1 = /shared/apps/gaussian/G09_LINUX_LINDA/g09/l1.exe PID=     28038.
  
 Copyright (c) 1988,1990,1992,1993,1995,1998,2003,2009,2010,
            Gaussian, Inc.  All Rights Reserved.
  
 This is part of the Gaussian(R) 09 program.  It is based on
 the Gaussian(R) 03 system (copyright 2003, Gaussian, Inc.),
 the Gaussian(R) 98 system (copyright 1998, Gaussian, Inc.),
 the Gaussian(R) 94 system (copyright 1995, Gaussian, Inc.),
 the Gaussian 92(TM) system (copyright 1992, Gaussian, Inc.),
 the Gaussian 90(TM) system (copyright 1990, Gaussian, Inc.),
 the Gaussian 88(TM) system (copyright 1988, Gaussian, Inc.),
 the Gaussian 86(TM) system (copyright 1986, Carnegie Mellon
 University), and the Gaussian 82(TM) system (copyright 1983,
 Carnegie Mellon University). Gaussian is a federally registered
 trademark of Gaussian, Inc.
  
 This software contains proprietary and confidential information,
 including trade secrets, belonging to Gaussian, Inc.
  
 This software is provided under written license and may be
 used, copied, transmitted, or stored only in accord with that
 written license.
  
 The following legend is applicable only to US Government
 contracts under FAR:
  
                    RESTRICTED RIGHTS LEGEND
  
 Use, reproduction and disclosure by the US Government is
 subject to restrictions as set forth in subparagraphs (a)
 and (c) of the Commercial Computer Software - Restricted
 Rights clause in FAR 52.227-19.
  
 Gaussian, Inc.
 340 Quinnipiac St., Bldg. 40, Wallingford CT 06492
  
  
 ---------------------------------------------------------------
 Warning -- This program may not be used in any manner that
 competes with the business of Gaussian, Inc. or will provide
 assistance to any competitor of Gaussian, Inc.  The licensee
 of this program is prohibited from giving any competitor of
 Gaussian, Inc. access to this program.  By using this program,
 the user acknowledges that Gaussian, Inc. is engaged in the
 business of creating and licensing software in the field of
 computational chemistry and represents and warrants to the
 licensee that it is not a competitor of Gaussian, Inc. and that
 it will not use this program in any manner prohibited above.
 ---------------------------------------------------------------
  

 Cite this work as:
 Gaussian 09, Revision B.01,
 M. J. Frisch, G. W. Trucks, H. B. Schlegel, G. E. Scuseria, 
 M. A. Robb, J. R. Cheeseman, G. Scalmani, V. Barone, B. Mennucci, 
 G. A. Petersson, H. Nakatsuji, M. Caricato, X. Li, H. P. Hratchian, 
 A. F. Izmaylov, J. Bloino, G. Zheng, J. L. Sonnenberg, M. Hada, 
 M. Ehara, K. Toyota, R. Fukuda, J. Hasegawa, M. Ishida, T. Nakajima, 
 Y. Honda, O. Kitao, H. Nakai, T. Vreven, J. A. Montgomery, Jr., 
 J. E. Peralta, F. Ogliaro, M. Bearpark, J. J. Heyd, E. Brothers, 
 K. N. Kudin, V. N. Staroverov, T. Keith, R. Kobayashi, J. Normand, 
 K. Raghavachari, A. Rendell, J. C. Burant, S. S. Iyengar, J. Tomasi, 
 M. Cossi, N. Rega, J. M. Millam, M. Klene, J. E. Knox, J. B. Cross, 
 V. Bakken, C. Adamo, J. Jaramillo, R. Gomperts, R. E. Stratmann, 
 O. Yazyev, A. J. Austin, R. Cammi, C. Pomelli, J. W. Ochterski, 
 R. L. Martin, K. Morokuma, V. G. Zakrzewski, G. A. Voth, 
 P. Salvador, J. J. Dannenberg, S. Dapprich, A. D. Daniels, 
 O. Farkas, J. B. Foresman, J. V. Ortiz, J. Cioslowski, 
 and D. J. Fox, Gaussian, Inc., Wallingford CT, 2010.
 
 ******************************************
 Gaussian 09:  EM64L-G09RevB.01 12-Aug-2010
                16-Aug-2017 
 ******************************************
 %nprocshared=20
 Will use up to   20 processors via shared memory.
 %mem=5GB
 --------------------------------------------------------------
 # m062x/6-311+g(2df,2p) opt=(verytight,gdiis) freq IOP(2/16=3)
 --------------------------------------------------------------

 Warning!  Use of Opt=GDIIS is deprecated since it is seldom a good choice.

 1/7=1,14=-1,18=20,19=11,26=3,38=1/1,3;
 2/9=110,12=2,16=3,17=6,18=5,40=1/2;
 3/5=4,6=6,7=214,11=2,16=1,25=1,30=1,71=1,74=-55/1,2,3;
 4//1;
 5/5=2,38=5/2;
 6/7=2,8=2,9=2,10=2,28=1/1;
 7//1,2,3,16;
 1/7=1,14=-1,18=20,19=11/3(2);
 2/9=110,16=3/2;
 99//99;
 2/9=110,16=3/2;
 3/5=4,6=6,7=214,11=2,16=1,25=1,30=1,71=1,74=-55/1,2,3;
 4/5=5,16=3/1;
 5/5=2,38=5/2;
 7//1,2,3,16;
 1/7=1,14=-1,18=20,19=11/3(-5);
 2/9=110,16=3/2;
 6/7=2,8=2,9=2,10=2,19=2,28=1/1;
 99/9=1/99;
 -----------------------------------
 InChI=1S/C5H10/c1-4-5(2)3/h4H,1-3H3
 -----------------------------------
 Symbolic Z-matrix:
 Charge =  0 Multiplicity = 1
 C                    -0.3703    0.7931    1.1975 
 C                    -1.842    -0.441    -0.5381 
 C                     2.0258   -0.1114   -0.2914 
 C                    -0.4717   -0.052    -0.0475 
 C                     0.6279   -0.4583   -0.7179 
 H                     2.7539   -0.5591   -0.9997 
 H                     2.2275   -0.5139    0.7234 
 H                     2.1641    0.9901   -0.2923 
 H                    -1.3787    1.0238    1.602 
 H                     0.2006    0.2508    1.9802 
 H                     0.1373    1.7529    0.9658 
 H                    -2.4287    0.4748   -0.761 
 H                    -1.7983   -1.0611   -1.4591 
 H                    -2.3656   -1.022     0.2498 
 H                     0.5183   -1.0666   -1.6118 
 

 GradGradGradGradGradGradGradGradGradGradGradGradGradGradGradGradGradGrad
 Berny optimization.
 Initialization pass.
                           ----------------------------
                           !    Initial Parameters    !
                           ! (Angstroms and Degrees)  !
 --------------------------                            --------------------------
 ! Name  Definition              Value          Derivative Info.                !
 --------------------------------------------------------------------------------
 ! R1    R(1,4)                  1.5081         estimate D2E/DX2                !
 ! R2    R(1,9)                  1.1107         estimate D2E/DX2                !
 ! R3    R(1,10)                 1.1102         estimate D2E/DX2                !
 ! R4    R(1,11)                 1.1102         estimate D2E/DX2                !
 ! R5    R(2,4)                  1.5066         estimate D2E/DX2                !
 ! R6    R(2,12)                 1.1102         estimate D2E/DX2                !
 ! R7    R(2,13)                 1.1112         estimate D2E/DX2                !
 ! R8    R(2,14)                 1.1102         estimate D2E/DX2                !
 ! R9    R(3,5)                  1.5021         estimate D2E/DX2                !
 ! R10   R(3,6)                  1.1101         estimate D2E/DX2                !
 ! R11   R(3,7)                  1.1102         estimate D2E/DX2                !
 ! R12   R(3,8)                  1.1101         estimate D2E/DX2                !
 ! R13   R(4,5)                  1.3504         estimate D2E/DX2                !
 ! R14   R(5,15)                 1.0868         estimate D2E/DX2                !
 ! A1    A(4,1,9)              110.8535         estimate D2E/DX2                !
 ! A2    A(4,1,10)             110.05           estimate D2E/DX2                !
 ! A3    A(4,1,11)             110.0535         estimate D2E/DX2                !
 ! A4    A(9,1,10)             108.153          estimate D2E/DX2                !
 ! A5    A(9,1,11)             108.1515         estimate D2E/DX2                !
 ! A6    A(10,1,11)            109.5302         estimate D2E/DX2                !
 ! A7    A(4,2,12)             109.4539         estimate D2E/DX2                !
 ! A8    A(4,2,13)             112.2245         estimate D2E/DX2                !
 ! A9    A(4,2,14)             109.4507         estimate D2E/DX2                !
 ! A10   A(12,2,13)            108.3433         estimate D2E/DX2                !
 ! A11   A(12,2,14)            108.9621         estimate D2E/DX2                !
 ! A12   A(13,2,14)            108.3451         estimate D2E/DX2                !
 ! A13   A(5,3,6)              109.6388         estimate D2E/DX2                !
 ! A14   A(5,3,7)              110.1748         estimate D2E/DX2                !
 ! A15   A(5,3,8)              110.1724         estimate D2E/DX2                !
 ! A16   A(6,3,7)              108.5336         estimate D2E/DX2                !
 ! A17   A(6,3,8)              108.5382         estimate D2E/DX2                !
 ! A18   A(7,3,8)              109.7451         estimate D2E/DX2                !
 ! A19   A(1,4,2)              118.3374         estimate D2E/DX2                !
 ! A20   A(1,4,5)              121.5784         estimate D2E/DX2                !
 ! A21   A(2,4,5)              120.0841         estimate D2E/DX2                !
 ! A22   A(3,5,4)              123.1842         estimate D2E/DX2                !
 ! A23   A(3,5,15)             117.1714         estimate D2E/DX2                !
 ! A24   A(4,5,15)             119.6445         estimate D2E/DX2                !
 ! D1    D(9,1,4,2)              0.0023         estimate D2E/DX2                !
 ! D2    D(9,1,4,5)            179.9944         estimate D2E/DX2                !
 ! D3    D(10,1,4,2)           119.6015         estimate D2E/DX2                !
 ! D4    D(10,1,4,5)           -60.4065         estimate D2E/DX2                !
 ! D5    D(11,1,4,2)          -119.5973         estimate D2E/DX2                !
 ! D6    D(11,1,4,5)            60.3947         estimate D2E/DX2                !
 ! D7    D(12,2,4,1)            59.6739         estimate D2E/DX2                !
 ! D8    D(12,2,4,5)          -120.3183         estimate D2E/DX2                !
 ! D9    D(13,2,4,1)           179.9966         estimate D2E/DX2                !
 ! D10   D(13,2,4,5)             0.0044         estimate D2E/DX2                !
 ! D11   D(14,2,4,1)           -59.6807         estimate D2E/DX2                !
 ! D12   D(14,2,4,5)           120.3272         estimate D2E/DX2                !
 ! D13   D(6,3,5,4)            179.9932         estimate D2E/DX2                !
 ! D14   D(6,3,5,15)            -0.0009         estimate D2E/DX2                !
 ! D15   D(7,3,5,4)             60.6086         estimate D2E/DX2                !
 ! D16   D(7,3,5,15)          -119.3855         estimate D2E/DX2                !
 ! D17   D(8,3,5,4)            -60.618          estimate D2E/DX2                !
 ! D18   D(8,3,5,15)           119.3879         estimate D2E/DX2                !
 ! D19   D(1,4,5,3)              0.0075         estimate D2E/DX2                !
 ! D20   D(1,4,5,15)          -179.9985         estimate D2E/DX2                !
 ! D21   D(2,4,5,3)            179.9994         estimate D2E/DX2                !
 ! D22   D(2,4,5,15)            -0.0066         estimate D2E/DX2                !
 --------------------------------------------------------------------------------
 Trust Radius=3.00D-01 FncErr=1.00D-07 GrdErr=1.00D-06
 Number of steps in this run=     70 maximum allowed number of steps=    100.
 GradGradGradGradGradGradGradGradGradGradGradGradGradGradGradGradGradGrad

                          Input orientation:                          
 ---------------------------------------------------------------------
 Center     Atomic      Atomic             Coordinates (Angstroms)
 Number     Number       Type             X           Y           Z
 ---------------------------------------------------------------------
      1          6           0       -0.370300    0.793100    1.197500
      2          6           0       -1.842000   -0.441000   -0.538100
      3          6           0        2.025800   -0.111400   -0.291400
      4          6           0       -0.471700   -0.052000   -0.047500
      5          6           0        0.627900   -0.458300   -0.717900
      6          1           0        2.753900   -0.559100   -0.999700
      7          1           0        2.227500   -0.513900    0.723400
      8          1           0        2.164100    0.990100   -0.292300
      9          1           0       -1.378700    1.023800    1.602000
     10          1           0        0.200600    0.250800    1.980200
     11          1           0        0.137300    1.752900    0.965800
     12          1           0       -2.428700    0.474800   -0.761000
     13          1           0       -1.798300   -1.061100   -1.459100
     14          1           0       -2.365600   -1.022000    0.249800
     15          1           0        0.518300   -1.066600   -1.611800
 ---------------------------------------------------------------------
                    Distance matrix (angstroms):
                    1          2          3          4          5
     1  C    0.000000
     2  C    2.588670   0.000000
     3  C    2.962472   3.889650   0.000000
     4  C    1.508145   1.506563   2.510084   0.000000
     5  C    2.496230   2.476496   1.502121   1.350421   0.000000
     6  H    4.051760   4.620532   1.110069   3.401225   2.146962
     7  H    2.946453   4.261165   1.110184   2.844876   2.153870
     8  H    2.946438   4.261139   1.110149   2.844880   2.153813
     9  H    1.110726   2.634448   4.057618   2.168143   3.406611
    10  H    1.110241   3.315515   2.936445   2.157601   2.822260
    11  H    1.110207   3.315500   2.936426   2.157619   2.822222
    12  H    2.859029   1.110221   4.517380   2.148592   3.196144
    13  H    3.540447   1.111159   4.109646   2.184208   2.607526
    14  H    2.859011   1.110182   4.517354   2.148521   3.196129
    15  H    3.484288   2.667438   2.220004   2.111054   1.086783
                    6          7          8          9         10
     6  H    0.000000
     7  H    1.802280   0.000000
     8  H    1.802304   1.815952   0.000000
     9  H    5.133498   4.017603   4.017579   0.000000
    10  H    4.006879   2.504523   3.092920   1.798542   0.000000
    11  H    4.006885   3.092907   2.504515   1.798497   1.813648
    12  H    5.290111   4.986098   4.645323   2.643420   3.804940
    13  H    4.602779   4.611919   4.611882   3.727359   4.188731
    14  H    5.290067   4.645323   4.986041   2.643428   3.346593
    15  H    2.372790   2.946184   2.946142   4.277487   3.839133
                   11         12         13         14         15
    11  H    0.000000
    12  H    3.346600   0.000000
    13  H    4.188709   1.801038   0.000000
    14  H    3.804896   1.807238   1.801027   0.000000
    15  H    3.839110   3.432868   2.321634   3.432845   0.000000
 Stoichiometry    C5H10
 Framework group  C1[X(C5H10)]
 Deg. of freedom    39
 Full point group                 C1      NOp   1
 Largest Abelian subgroup         C1      NOp   1
 Largest concise Abelian subgroup C1      NOp   1
                         Standard orientation:                         
 ---------------------------------------------------------------------
 Center     Atomic      Atomic             Coordinates (Angstroms)
 Number     Number       Type             X           Y           Z
 ---------------------------------------------------------------------
      1          6           0        0.434389    1.478068    0.000012
      2          6           0        1.808667   -0.715689   -0.000003
      3          6           0       -2.039807   -0.151224    0.000006
      4          6           0        0.467334   -0.029717   -0.000045
      5          6           0       -0.667399   -0.761848    0.000028
      6          1           0       -2.805676   -0.954779   -0.000046
      7          1           0       -2.181750    0.471611   -0.907979
      8          1           0       -2.181731    0.471579    0.907973
      9          1           0        1.463470    1.896045    0.000039
     10          1           0       -0.088939    1.847394   -0.906830
     11          1           0       -0.088940    1.847377    0.906818
     12          1           0        2.378496   -0.413483    0.903632
     13          1           0        1.714504   -1.822851    0.000010
     14          1           0        2.378472   -0.413482   -0.903606
     15          1           0       -0.607004   -1.846952    0.000008
 ---------------------------------------------------------------------
 Rotational constants (GHZ):      7.9523099      3.6402678      2.6260114
 Standard basis: 6-311+G(2df,2p) (5D, 7F)
 There are   260 symmetry adapted basis functions of A   symmetry.
 Integral buffers will be    131072 words long.
 Raffenetti 2 integral format.
 Two-electron integral symmetry is turned on.
   260 basis functions,   370 primitive gaussians,   285 cartesian basis functions
    20 alpha electrons       20 beta electrons
       nuclear repulsion energy       174.5605339137 Hartrees.
 NAtoms=   15 NActive=   15 NUniq=   15 SFac= 1.00D+00 NAtFMM=   50 NAOKFM=F Big=F
 One-electron integrals computed using PRISM.
 NBasis=   260 RedAO= T  NBF=   260
 NBsUse=   260 1.00D-06 NBFU=   260
 Harris functional with IExCor= 1009 diagonalized for initial guess.
 ExpMin= 4.38D-02 ExpMax= 4.56D+03 ExpMxC= 6.82D+02 IAcc=2 IRadAn=         0 AccDes= 0.00D+00
 HarFok:  IExCor= 1009 AccDes= 0.00D+00 IRadAn=         0 IDoV= 1
 ScaDFX=  1.000000  1.000000  1.000000  1.000000
 FoFCou: FMM=F IPFlag=           0 FMFlag=      100000 FMFlg1=           0
         NFxFlg=           0 DoJE=T BraDBF=F KetDBF=T FulRan=T
         Omega=  0.000000  0.000000  1.000000  0.000000  0.000000 ICntrl=     500 IOpCl=  0
         NMat0=    1 NMatS0=    1 NMatT0=    0 NMatD0=    1 NMtDS0=    0 NMtDT0=    0
         I1Cent=           4 NGrid=           0.
 Petite list used in FoFCou.
 Initial guess orbital symmetries:
       Occupied  (A) (A) (A) (A) (A) (A) (A) (A) (A) (A) (A) (A)
                 (A) (A) (A) (A) (A) (A) (A) (A)
       Virtual   (A) (A) (A) (A) (A) (A) (A) (A) (A) (A) (A) (A)
                 (A) (A) (A) (A) (A) (A) (A) (A) (A) (A) (A) (A)
                 (A) (A) (A) (A) (A) (A) (A) (A) (A) (A) (A) (A)
                 (A) (A) (A) (A) (A) (A) (A) (A) (A) (A) (A) (A)
                 (A) (A) (A) (A) (A) (A) (A) (A) (A) (A) (A) (A)
                 (A) (A) (A) (A) (A) (A) (A) (A) (A) (A) (A) (A)
                 (A) (A) (A) (A) (A) (A) (A) (A) (A) (A) (A) (A)
                 (A) (A) (A) (A) (A) (A) (A) (A) (A) (A) (A) (A)
                 (A) (A) (A) (A) (A) (A) (A) (A) (A) (A) (A) (A)
                 (A) (A) (A) (A) (A) (A) (A) (A) (A) (A) (A) (A)
                 (A) (A) (A) (A) (A) (A) (A) (A) (A) (A) (A) (A)
                 (A) (A) (A) (A) (A) (A) (A) (A) (A) (A) (A) (A)
                 (A) (A) (A) (A) (A) (A) (A) (A) (A) (A) (A) (A)
                 (A) (A) (A) (A) (A) (A) (A) (A) (A) (A) (A) (A)
                 (A) (A) (A) (A) (A) (A) (A) (A) (A) (A) (A) (A)
                 (A) (A) (A) (A) (A) (A) (A) (A) (A) (A) (A) (A)
                 (A) (A) (A) (A) (A) (A) (A) (A) (A) (A) (A) (A)
                 (A) (A) (A) (A) (A) (A) (A) (A) (A) (A) (A) (A)
                 (A) (A) (A) (A) (A) (A) (A) (A) (A) (A) (A) (A)
                 (A) (A) (A) (A) (A) (A) (A) (A) (A) (A) (A) (A)
 The electronic state of the initial guess is 1-A.
 Requested convergence on RMS density matrix=1.00D-08 within 128 cycles.
 Requested convergence on MAX density matrix=1.00D-06.
 Requested convergence on             energy=1.00D-06.
 No special actions if energy rises.
 SCF Done:  E(RM062X) =  -196.492648296     A.U. after   11 cycles
             Convg  =    0.9327D-08             -V/T =  2.0060

 **********************************************************************

            Population analysis using the SCF density.

 **********************************************************************

 Orbital symmetries:
       Occupied  (A) (A) (A) (A) (A) (A) (A) (A) (A) (A) (A) (A)
                 (A) (A) (A) (A) (A) (A) (A) (A)
       Virtual   (A) (A) (A) (A) (A) (A) (A) (A) (A) (A) (A) (A)
                 (A) (A) (A) (A) (A) (A) (A) (A) (A) (A) (A) (A)
                 (A) (A) (A) (A) (A) (A) (A) (A) (A) (A) (A) (A)
                 (A) (A) (A) (A) (A) (A) (A) (A) (A) (A) (A) (A)
                 (A) (A) (A) (A) (A) (A) (A) (A) (A) (A) (A) (A)
                 (A) (A) (A) (A) (A) (A) (A) (A) (A) (A) (A) (A)
                 (A) (A) (A) (A) (A) (A) (A) (A) (A) (A) (A) (A)
                 (A) (A) (A) (A) (A) (A) (A) (A) (A) (A) (A) (A)
                 (A) (A) (A) (A) (A) (A) (A) (A) (A) (A) (A) (A)
                 (A) (A) (A) (A) (A) (A) (A) (A) (A) (A) (A) (A)
                 (A) (A) (A) (A) (A) (A) (A) (A) (A) (A) (A) (A)
                 (A) (A) (A) (A) (A) (A) (A) (A) (A) (A) (A) (A)
                 (A) (A) (A) (A) (A) (A) (A) (A) (A) (A) (A) (A)
                 (A) (A) (A) (A) (A) (A) (A) (A) (A) (A) (A) (A)
                 (A) (A) (A) (A) (A) (A) (A) (A) (A) (A) (A) (A)
                 (A) (A) (A) (A) (A) (A) (A) (A) (A) (A) (A) (A)
                 (A) (A) (A) (A) (A) (A) (A) (A) (A) (A) (A) (A)
                 (A) (A) (A) (A) (A) (A) (A) (A) (A) (A) (A) (A)
                 (A) (A) (A) (A) (A) (A) (A) (A) (A) (A) (A) (A)
                 (A) (A) (A) (A) (A) (A) (A) (A) (A) (A) (A) (A)
 The electronic state is 1-A.
 Alpha  occ. eigenvalues --  -10.53796 -10.53329 -10.53011 -10.52856 -10.52256
 Alpha  occ. eigenvalues --   -0.90969  -0.82075  -0.77908  -0.71164  -0.58274
 Alpha  occ. eigenvalues --   -0.52474  -0.50373  -0.49354  -0.46592  -0.45087
 Alpha  occ. eigenvalues --   -0.44644  -0.42443  -0.40391  -0.38541  -0.28219
 Alpha virt. eigenvalues --    0.01384   0.03023   0.03309   0.03687   0.05236
 Alpha virt. eigenvalues --    0.05620   0.05758   0.07391   0.07419   0.08502
 Alpha virt. eigenvalues --    0.08705   0.09766   0.11641   0.12718   0.13181
 Alpha virt. eigenvalues --    0.14278   0.15162   0.15822   0.16204   0.18692
 Alpha virt. eigenvalues --    0.20480   0.20599   0.21734   0.22310   0.22566
 Alpha virt. eigenvalues --    0.24093   0.25009   0.25524   0.27078   0.27221
 Alpha virt. eigenvalues --    0.29197   0.29626   0.32786   0.36690   0.41476
 Alpha virt. eigenvalues --    0.41809   0.42002   0.45089   0.45225   0.46634
 Alpha virt. eigenvalues --    0.49141   0.49879   0.50489   0.53872   0.54269
 Alpha virt. eigenvalues --    0.55965   0.56339   0.56554   0.57717   0.59000
 Alpha virt. eigenvalues --    0.59983   0.60357   0.63426   0.64116   0.64809
 Alpha virt. eigenvalues --    0.65216   0.68566   0.69042   0.69232   0.70032
 Alpha virt. eigenvalues --    0.71561   0.72399   0.73081   0.77766   0.79746
 Alpha virt. eigenvalues --    0.82333   0.83575   0.87893   0.89789   0.90783
 Alpha virt. eigenvalues --    0.92338   0.93583   0.96479   0.97570   0.98068
 Alpha virt. eigenvalues --    1.00874   1.03383   1.05540   1.08854   1.11937
 Alpha virt. eigenvalues --    1.12678   1.13751   1.15037   1.16600   1.17189
 Alpha virt. eigenvalues --    1.20022   1.22234   1.22740   1.24510   1.26024
 Alpha virt. eigenvalues --    1.27375   1.28212   1.31659   1.33834   1.34497
 Alpha virt. eigenvalues --    1.35879   1.36125   1.39621   1.39905   1.39946
 Alpha virt. eigenvalues --    1.40048   1.41637   1.45077   1.46361   1.47498
 Alpha virt. eigenvalues --    1.47524   1.49207   1.50815   1.53917   1.57156
 Alpha virt. eigenvalues --    1.58707   1.60383   1.62264   1.63144   1.64719
 Alpha virt. eigenvalues --    1.66604   1.66767   1.74338   1.91080   2.01164
 Alpha virt. eigenvalues --    2.32332   2.40172   2.48328   2.48873   2.51046
 Alpha virt. eigenvalues --    2.51587   2.60948   2.63707   2.68814   2.72870
 Alpha virt. eigenvalues --    2.79385   2.80332   2.82543   2.85291   2.86049
 Alpha virt. eigenvalues --    2.87825   2.90001   2.91829   2.92390   2.93552
 Alpha virt. eigenvalues --    2.94718   2.97865   3.00203   3.02879   3.03077
 Alpha virt. eigenvalues --    3.05273   3.09686   3.10315   3.13182   3.14670
 Alpha virt. eigenvalues --    3.15108   3.15872   3.18635   3.18708   3.20044
 Alpha virt. eigenvalues --    3.22483   3.24435   3.24958   3.28658   3.30948
 Alpha virt. eigenvalues --    3.31240   3.35417   3.36861   3.40188   3.40646
 Alpha virt. eigenvalues --    3.43669   3.47854   3.51233   3.52182   3.52414
 Alpha virt. eigenvalues --    3.55932   3.56568   3.59371   3.60257   3.66376
 Alpha virt. eigenvalues --    3.67493   3.69419   3.70117   3.72886   3.78520
 Alpha virt. eigenvalues --    3.82333   3.85368   3.86412   3.87909   3.89112
 Alpha virt. eigenvalues --    3.89300   3.89852   3.89860   3.93380   3.97830
 Alpha virt. eigenvalues --    4.02041   4.02764   4.10562   4.10652   4.13460
 Alpha virt. eigenvalues --    4.16175   4.16234   4.17062   4.17492   4.18947
 Alpha virt. eigenvalues --    4.22253   4.25437   4.25603   4.32434   4.34394
 Alpha virt. eigenvalues --    4.36308   4.37445   4.38295   4.40818   4.41269
 Alpha virt. eigenvalues --    4.43702   4.45690   4.46889   4.51333   4.54380
 Alpha virt. eigenvalues --    4.54880   4.60732   4.66230   4.66680   4.72126
 Alpha virt. eigenvalues --    4.75831   4.83096   4.98301   5.07588   5.19552
 Alpha virt. eigenvalues --    5.36412   5.47713   5.50555   5.51866   5.52811
 Alpha virt. eigenvalues --    5.54193   5.55714   5.60110   5.70249   5.85255
 Alpha virt. eigenvalues --   24.04810  24.35904  24.38671  24.41034  24.83919
          Condensed to atoms (all electrons):
              1          2          3          4          5          6
     1  C    5.794161  -0.062401  -0.109682   0.129229  -0.194369   0.002124
     2  C   -0.062401   5.497205  -0.115081  -0.240139   0.258051   0.005848
     3  C   -0.109682  -0.115081   5.435713   0.232483  -0.090768   0.402536
     4  C    0.129229  -0.240139   0.232483   5.617400   0.054300   0.039301
     5  C   -0.194369   0.258051  -0.090768   0.054300   5.747619  -0.065548
     6  H    0.002124   0.005848   0.402536   0.039301  -0.065548   0.535070
     7  H   -0.011041   0.005840   0.407969  -0.026489  -0.023989  -0.022175
     8  H   -0.011053   0.005841   0.407978  -0.026497  -0.023978  -0.022169
     9  H    0.397519   0.040844  -0.001525  -0.067895   0.008421  -0.000004
    10  H    0.415879  -0.002855  -0.000571  -0.040583  -0.017779   0.000066
    11  H    0.415864  -0.002862  -0.000573  -0.040587  -0.017746   0.000066
    12  H    0.006255   0.414086   0.000337  -0.027960  -0.027263   0.000006
    13  H   -0.029600   0.426509   0.011265  -0.106982   0.073552  -0.000049
    14  H    0.006215   0.414129   0.000341  -0.027979  -0.027250   0.000006
    15  H   -0.022589   0.019068   0.008279  -0.015587   0.371263  -0.010384
              7          8          9         10         11         12
     1  C   -0.011041  -0.011053   0.397519   0.415879   0.415864   0.006255
     2  C    0.005840   0.005841   0.040844  -0.002855  -0.002862   0.414086
     3  C    0.407969   0.407978  -0.001525  -0.000571  -0.000573   0.000337
     4  C   -0.026489  -0.026497  -0.067895  -0.040583  -0.040587  -0.027960
     5  C   -0.023989  -0.023978   0.008421  -0.017779  -0.017746  -0.027263
     6  H   -0.022175  -0.022169  -0.000004   0.000066   0.000066   0.000006
     7  H    0.558049  -0.040587   0.000061   0.005056  -0.003188  -0.000094
     8  H   -0.040587   0.558031   0.000061  -0.003188   0.005056   0.000197
     9  H    0.000061   0.000061   0.528716  -0.023203  -0.023206  -0.001782
    10  H    0.005056  -0.003188  -0.023203   0.537988  -0.035745  -0.000023
    11  H   -0.003188   0.005056  -0.023206  -0.035745   0.537980   0.000635
    12  H   -0.000094   0.000197  -0.001782  -0.000023   0.000635   0.564027
    13  H   -0.000014  -0.000014   0.000378  -0.000232  -0.000232  -0.024481
    14  H    0.000197  -0.000094  -0.001782   0.000635  -0.000023  -0.042170
    15  H    0.003513   0.003512  -0.000121  -0.000067  -0.000066   0.000422
             13         14         15
     1  C   -0.029600   0.006215  -0.022589
     2  C    0.426509   0.414129   0.019068
     3  C    0.011265   0.000341   0.008279
     4  C   -0.106982  -0.027979  -0.015587
     5  C    0.073552  -0.027250   0.371263
     6  H   -0.000049   0.000006  -0.010384
     7  H   -0.000014   0.000197   0.003513
     8  H   -0.000014  -0.000094   0.003512
     9  H    0.000378  -0.001782  -0.000121
    10  H   -0.000232   0.000635  -0.000067
    11  H   -0.000232  -0.000023  -0.000066
    12  H   -0.024481  -0.042170   0.000422
    13  H    0.537912  -0.024483   0.000656
    14  H   -0.024483   0.564008   0.000421
    15  H    0.000656   0.000421   0.499170
 Mulliken atomic charges:
              1
     1  C   -0.726511
     2  C   -0.664084
     3  C   -0.588702
     4  C    0.547986
     5  C   -0.024516
     6  H    0.135306
     7  H    0.146892
     8  H    0.146902
     9  H    0.143518
    10  H    0.164622
    11  H    0.164628
    12  H    0.137808
    13  H    0.135815
    14  H    0.137825
    15  H    0.142511
 Sum of Mulliken atomic charges =   0.00000
 Mulliken charges with hydrogens summed into heavy atoms:
              1
     1  C   -0.253744
     2  C   -0.252635
     3  C   -0.159601
     4  C    0.547986
     5  C    0.117994
 Sum of Mulliken charges with hydrogens summed into heavy atoms =   0.00000
 Electronic spatial extent (au):  <R**2>=            530.1178
 Charge=              0.0000 electrons
 Dipole moment (field-independent basis, Debye):
    X=              0.1038    Y=              0.2599    Z=              0.0000  Tot=              0.2799
 Quadrupole moment (field-independent basis, Debye-Ang):
   XX=            -33.1515   YY=            -32.9562   ZZ=            -34.6771
   XY=              0.4458   XZ=              0.0001   YZ=              0.0001
 Traceless Quadrupole moment (field-independent basis, Debye-Ang):
   XX=              0.4435   YY=              0.6387   ZZ=             -1.0822
   XY=              0.4458   XZ=              0.0001   YZ=              0.0001
 Octapole moment (field-independent basis, Debye-Ang**2):
  XXX=              0.5769  YYY=             -3.6343  ZZZ=              0.0001  XYY=             -0.5979
  XXY=             -0.5715  XXZ=             -0.0002  XZZ=              0.2149  YZZ=              2.7738
  YYZ=              0.0003  XYZ=             -0.0001
 Hexadecapole moment (field-independent basis, Debye-Ang**3):
 XXXX=           -470.6847 YYYY=           -228.6641 ZZZZ=            -61.5912 XXXY=              8.9013
 XXXZ=              0.0017 YYYX=              1.5158 YYYZ=              0.0009 ZZZX=             -0.0002
 ZZZY=              0.0002 XXYY=           -113.1869 XXZZ=            -84.6130 YYZZ=            -49.4617
 XXYZ=              0.0003 YYXZ=              0.0004 ZZXY=             -2.3522
 N-N= 1.745605339137D+02 E-N=-8.035809153074D+02  KE= 1.953232316251D+02
 Calling FoFJK, ICntrl=      2127 FMM=F ISym2X=0 I1Cent= 0 IOpClX= 0 NMat=1 NMatS=1 NMatT=0.
 ***** Axes restored to original set *****
 -------------------------------------------------------------------
 Center     Atomic                   Forces (Hartrees/Bohr)
 Number     Number              X              Y              Z
 -------------------------------------------------------------------
      1        6          -0.004763739    0.002590885    0.004171387
      2        6          -0.005475081   -0.000769286   -0.000819176
      3        6           0.006703894   -0.002138691   -0.003556556
      4        6           0.014958553   -0.012600303   -0.019630758
      5        6          -0.014994325    0.007782754    0.012485698
      6        1          -0.006381992    0.007008337    0.010768017
      7        1           0.000911041    0.007300434   -0.009801966
      8        1           0.001723196   -0.011724756    0.003057035
      9        1           0.012650866   -0.002295337   -0.004184222
     10        1          -0.004478991    0.008987994   -0.007201550
     11        1          -0.003656681   -0.010259695    0.005797218
     12        1           0.002539838   -0.010816441    0.003555665
     13        1           0.000625037    0.008157288    0.012043049
     14        1           0.001753890    0.007450431   -0.008776879
     15        1          -0.002115506    0.001326386    0.002093038
 -------------------------------------------------------------------
 Cartesian Forces:  Max     0.019630758 RMS     0.007940393

 GradGradGradGradGradGradGradGradGradGradGradGradGradGradGradGradGradGrad
 Berny optimization.
 Internal  Forces:  Max     0.021855796 RMS     0.006054042
 Search for a local minimum.
 Step number   1 out of a maximum of   70
 All quantities printed in internal units (Hartrees-Bohrs-Radians)
 Swaping is turned off.
 Second derivative matrix not updated -- first step.
 ITU=  0
     Eigenvalues ---    0.00658   0.00679   0.00738   0.01207   0.01563
     Eigenvalues ---    0.02745   0.07154   0.07297   0.07322   0.07354
     Eigenvalues ---    0.07458   0.07481   0.16000   0.16000   0.16000
     Eigenvalues ---    0.16000   0.16000   0.16000   0.16000   0.16000
     Eigenvalues ---    0.16000   0.16000   0.22000   0.25000   0.25000
     Eigenvalues ---    0.31538   0.31698   0.32156   0.32478   0.32523
     Eigenvalues ---    0.32575   0.32577   0.32578   0.32581   0.32581
     Eigenvalues ---    0.32584   0.32593   0.35187   0.54932
 Angle between quadratic step and forces=  24.04 degrees.
 Linear search not attempted -- option 19 set.
 Iteration  1 RMS(Cart)=  0.02838191 RMS(Int)=  0.00043692
 Iteration  2 RMS(Cart)=  0.00062539 RMS(Int)=  0.00013825
 Iteration  3 RMS(Cart)=  0.00000027 RMS(Int)=  0.00013825
 Variable       Old X    -DE/DX   Delta X   Delta X   Delta X     New X
                                 (Linear)    (Quad)   (Total)
    R1        2.84998  -0.00173   0.00000  -0.00547  -0.00547   2.84451
    R2        2.09897  -0.01349   0.00000  -0.04148  -0.04148   2.05749
    R3        2.09805  -0.01177   0.00000  -0.03612  -0.03612   2.06193
    R4        2.09799  -0.01175   0.00000  -0.03606  -0.03606   2.06193
    R5        2.84699  -0.00249   0.00000  -0.00785  -0.00785   2.83914
    R6        2.09801  -0.01097   0.00000  -0.03369  -0.03369   2.06433
    R7        2.09979  -0.01452   0.00000  -0.04470  -0.04470   2.05509
    R8        2.09794  -0.01095   0.00000  -0.03361  -0.03361   2.06433
    R9        2.83860   0.00297   0.00000   0.00923   0.00923   2.84783
   R10        2.09773  -0.01388   0.00000  -0.04258  -0.04258   2.05515
   R11        2.09794  -0.01145   0.00000  -0.03513  -0.03513   2.06281
   R12        2.09788  -0.01143   0.00000  -0.03507  -0.03507   2.06281
   R13        2.55193  -0.02186   0.00000  -0.03979  -0.03979   2.51214
   R14        2.05372  -0.00225   0.00000  -0.00639  -0.00639   2.04734
    A1        1.93476   0.00072   0.00000   0.00872   0.00856   1.94332
    A2        1.92073   0.00319   0.00000   0.01785   0.01776   1.93849
    A3        1.92080   0.00318   0.00000   0.01779   0.01770   1.93850
    A4        1.88763  -0.00132   0.00000  -0.00411  -0.00426   1.88337
    A5        1.88760  -0.00131   0.00000  -0.00408  -0.00423   1.88337
    A6        1.91166  -0.00470   0.00000  -0.03763  -0.03765   1.87401
    A7        1.91033   0.00405   0.00000   0.02422   0.02417   1.93451
    A8        1.95869  -0.00284   0.00000  -0.01547  -0.01539   1.94329
    A9        1.91027   0.00407   0.00000   0.02429   0.02424   1.93452
   A10        1.89095  -0.00033   0.00000   0.00016   0.00023   1.89117
   A11        1.90175  -0.00483   0.00000  -0.03490  -0.03506   1.86669
   A12        1.89098  -0.00034   0.00000   0.00014   0.00021   1.89118
   A13        1.91356   0.00429   0.00000   0.03163   0.03112   1.94468
   A14        1.92291   0.00375   0.00000   0.02101   0.02074   1.94366
   A15        1.92287   0.00376   0.00000   0.02106   0.02079   1.94366
   A16        1.89427  -0.00323   0.00000  -0.01539  -0.01586   1.87841
   A17        1.89435  -0.00324   0.00000  -0.01544  -0.01592   1.87843
   A18        1.91541  -0.00554   0.00000  -0.04388  -0.04391   1.87151
   A19        2.06538  -0.00492   0.00000  -0.01969  -0.01969   2.04569
   A20        2.12194  -0.00330   0.00000  -0.01321  -0.01321   2.10873
   A21        2.09586   0.00823   0.00000   0.03290   0.03290   2.12877
   A22        2.14997   0.00135   0.00000   0.00612   0.00612   2.15609
   A23        2.04503   0.00175   0.00000   0.01211   0.01211   2.05714
   A24        2.08819  -0.00310   0.00000  -0.01823  -0.01823   2.06996
    D1        0.00004   0.00000   0.00000  -0.00009  -0.00009  -0.00005
    D2        3.14149   0.00000   0.00000   0.00011   0.00010  -3.14159
    D3        2.08744   0.00087   0.00000   0.01186   0.01191   2.09935
    D4       -1.05429   0.00088   0.00000   0.01205   0.01211  -1.04219
    D5       -2.08737  -0.00088   0.00000  -0.01204  -0.01209  -2.09946
    D6        1.05409  -0.00087   0.00000  -0.01185  -0.01190   1.04219
    D7        1.04151  -0.00049   0.00000  -0.00653  -0.00644   1.03506
    D8       -2.09995  -0.00050   0.00000  -0.00672  -0.00663  -2.10658
    D9        3.14153   0.00000   0.00000   0.00010   0.00010  -3.14155
   D10        0.00008   0.00000   0.00000  -0.00009  -0.00009  -0.00001
   D11       -1.04162   0.00050   0.00000   0.00676   0.00667  -1.03495
   D12        2.10011   0.00050   0.00000   0.00657   0.00648   2.10659
   D13        3.14147   0.00000   0.00000   0.00007   0.00007   3.14155
   D14       -0.00002   0.00000   0.00000  -0.00004  -0.00004  -0.00006
   D15        1.05782  -0.00101   0.00000  -0.01363  -0.01381   1.04401
   D16       -2.08367  -0.00101   0.00000  -0.01374  -0.01392  -2.09759
   D17       -1.05798   0.00101   0.00000   0.01374   0.01391  -1.04407
   D18        2.08371   0.00100   0.00000   0.01362   0.01380   2.09751
   D19        0.00013   0.00000   0.00000  -0.00018  -0.00018  -0.00005
   D20       -3.14157   0.00000   0.00000  -0.00006  -0.00006   3.14155
   D21        3.14158   0.00000   0.00000   0.00002   0.00002  -3.14158
   D22       -0.00012   0.00000   0.00000   0.00013   0.00014   0.00002
         Item               Value     Threshold  Converged?
 Maximum Force            0.021856     0.000002     NO 
 RMS     Force            0.006054     0.000001     NO 
 Maximum Displacement     0.075556     0.000006     NO 
 RMS     Displacement     0.028308     0.000004     NO 
 Predicted change in Energy=-3.546265D-03
 GradGradGradGradGradGradGradGradGradGradGradGradGradGradGradGradGradGrad

                          Input orientation:                          
 ---------------------------------------------------------------------
 Center     Atomic      Atomic             Coordinates (Angstroms)
 Number     Number       Type             X           Y           Z
 ---------------------------------------------------------------------
      1          6           0       -0.363922    0.776863    1.173090
      2          6           0       -1.849172   -0.437696   -0.532778
      3          6           0        2.021429   -0.108410   -0.286707
      4          6           0       -0.469100   -0.066504   -0.069265
      5          6           0        0.621439   -0.459882   -0.719796
      6          1           0        2.763460   -0.531710   -0.959717
      7          1           0        2.233184   -0.483035    0.716484
      8          1           0        2.171874    0.972578   -0.266606
      9          1           0       -1.347235    1.009332    1.578660
     10          1           0        0.206083    0.263130    1.948801
     11          1           0        0.144766    1.719530    0.965325
     12          1           0       -2.441982    0.455525   -0.742676
     13          1           0       -1.813940   -1.044993   -1.434230
     14          1           0       -2.380715   -0.998590    0.239353
     15          1           0        0.503931   -1.066037   -1.610038
 ---------------------------------------------------------------------
                    Distance matrix (angstroms):
                    1          2          3          4          5
     1  C    0.000000
     2  C    2.567315   0.000000
     3  C    2.933362   3.892368   0.000000
     4  C    1.505249   1.502407   2.500354   0.000000
     5  C    2.466474   2.477779   1.507007   1.329366   0.000000
     6  H    4.005215   4.633303   1.087537   3.385081   2.156612
     7  H    2.922463   4.269466   1.091593   2.844862   2.158971
     8  H    2.922549   4.269489   1.091592   2.844887   2.158975
     9  H    1.088776   2.608448   4.009592   2.155040   3.364100
    10  H    1.091126   3.297494   2.903621   2.153398   2.795833
    11  H    1.091124   3.297533   2.903586   2.153398   2.795834
    12  H    2.844600   1.092394   4.521942   2.149013   3.197349
    13  H    3.495687   1.087505   4.111453   2.151549   2.604581
    14  H    2.844565   1.092395   4.521950   2.149023   3.197359
    15  H    3.448949   2.663155   2.229586   2.078422   1.083403
                    6          7          8          9         10
     6  H    0.000000
     7  H    1.758753   0.000000
     8  H    1.758767   1.757565   0.000000
     9  H    5.071093   3.973651   3.973724   0.000000
    10  H    3.953660   2.486866   3.045600   1.762560   0.000000
    11  H    3.953661   3.045440   2.486918   1.762563   1.758433
    12  H    5.302676   4.986704   4.667082   2.625599   3.780650
    13  H    4.630466   4.617421   4.617429   3.676353   4.151696
    14  H    5.302668   4.667067   4.986739   2.625561   3.347488
    15  H    2.411202   2.956842   2.956822   4.231048   3.810608
                   11         12         13         14         15
    11  H    0.000000
    12  H    3.347572   0.000000
    13  H    4.151744   1.767551   0.000000
    14  H    3.780643   1.755729   1.767560   0.000000
    15  H    3.810627   3.427224   2.324623   3.427241   0.000000
 Stoichiometry    C5H10
 Framework group  C1[X(C5H10)]
 Deg. of freedom    39
 Full point group                 C1      NOp   1
 Largest Abelian subgroup         C1      NOp   1
 Largest concise Abelian subgroup C1      NOp   1
                         Standard orientation:                         
 ---------------------------------------------------------------------
 Center     Atomic      Atomic             Coordinates (Angstroms)
 Number     Number       Type             X           Y           Z
 ---------------------------------------------------------------------
      1          6           0        0.407496    1.460118   -0.000004
      2          6           0        1.823958   -0.681083   -0.000002
      3          6           0       -2.034129   -0.165636    0.000004
      4          6           0        0.463269   -0.044098    0.000019
      5          6           0       -0.652329   -0.767048   -0.000006
      6          1           0       -2.802358   -0.935417   -0.000067
      7          1           0       -2.194768    0.461711   -0.878749
      8          1           0       -2.194804    0.461617    0.878816
      9          1           0        1.406217    1.893697    0.000017
     10          1           0       -0.120165    1.833034   -0.879243
     11          1           0       -0.120219    1.833061    0.879190
     12          1           0        2.396893   -0.373835    0.877875
     13          1           0        1.752957   -1.766268   -0.000028
     14          1           0        2.396906   -0.373780   -0.877853
     15          1           0       -0.570252   -1.847337   -0.000024
 ---------------------------------------------------------------------
 Rotational constants (GHZ):      8.1827924      3.6468146      2.6458811
 Standard basis: 6-311+G(2df,2p) (5D, 7F)
 There are   260 symmetry adapted basis functions of A   symmetry.
 Integral buffers will be    131072 words long.
 Raffenetti 2 integral format.
 Two-electron integral symmetry is turned on.
   260 basis functions,   370 primitive gaussians,   285 cartesian basis functions
    20 alpha electrons       20 beta electrons
       nuclear repulsion energy       175.7947733844 Hartrees.
 NAtoms=   15 NActive=   15 NUniq=   15 SFac= 1.00D+00 NAtFMM=   50 NAOKFM=F Big=F
 One-electron integrals computed using PRISM.
 NBasis=   260 RedAO= T  NBF=   260
 NBsUse=   260 1.00D-06 NBFU=   260
 Initial guess read from the read-write file.
 B after Tr=     0.000000    0.000000    0.000000
         Rot=    1.000000    0.000000    0.000000    0.000000 Ang=   0.00 deg.
 Initial guess orbital symmetries:
       Occupied  (A) (A) (A) (A) (A) (A) (A) (A) (A) (A) (A) (A)
                 (A) (A) (A) (A) (A) (A) (A) (A)
       Virtual   (A) (A) (A) (A) (A) (A) (A) (A) (A) (A) (A) (A)
                 (A) (A) (A) (A) (A) (A) (A) (A) (A) (A) (A) (A)
                 (A) (A) (A) (A) (A) (A) (A) (A) (A) (A) (A) (A)
                 (A) (A) (A) (A) (A) (A) (A) (A) (A) (A) (A) (A)
                 (A) (A) (A) (A) (A) (A) (A) (A) (A) (A) (A) (A)
                 (A) (A) (A) (A) (A) (A) (A) (A) (A) (A) (A) (A)
                 (A) (A) (A) (A) (A) (A) (A) (A) (A) (A) (A) (A)
                 (A) (A) (A) (A) (A) (A) (A) (A) (A) (A) (A) (A)
                 (A) (A) (A) (A) (A) (A) (A) (A) (A) (A) (A) (A)
                 (A) (A) (A) (A) (A) (A) (A) (A) (A) (A) (A) (A)
                 (A) (A) (A) (A) (A) (A) (A) (A) (A) (A) (A) (A)
                 (A) (A) (A) (A) (A) (A) (A) (A) (A) (A) (A) (A)
                 (A) (A) (A) (A) (A) (A) (A) (A) (A) (A) (A) (A)
                 (A) (A) (A) (A) (A) (A) (A) (A) (A) (A) (A) (A)
                 (A) (A) (A) (A) (A) (A) (A) (A) (A) (A) (A) (A)
                 (A) (A) (A) (A) (A) (A) (A) (A) (A) (A) (A) (A)
                 (A) (A) (A) (A) (A) (A) (A) (A) (A) (A) (A) (A)
                 (A) (A) (A) (A) (A) (A) (A) (A) (A) (A) (A) (A)
                 (A) (A) (A) (A) (A) (A) (A) (A) (A) (A) (A) (A)
                 (A) (A) (A) (A) (A) (A) (A) (A) (A) (A) (A) (A)
 Harris functional with IExCor= 1009 diagonalized for initial guess.
 ExpMin= 4.38D-02 ExpMax= 4.56D+03 ExpMxC= 6.82D+02 IAcc=2 IRadAn=         0 AccDes= 0.00D+00
 HarFok:  IExCor= 1009 AccDes= 0.00D+00 IRadAn=         0 IDoV= 1
 ScaDFX=  1.000000  1.000000  1.000000  1.000000
 FoFCou: FMM=F IPFlag=           0 FMFlag=      100000 FMFlg1=           0
         NFxFlg=           0 DoJE=T BraDBF=F KetDBF=T FulRan=T
         Omega=  0.000000  0.000000  1.000000  0.000000  0.000000 ICntrl=     500 IOpCl=  0
         NMat0=    1 NMatS0=    1 NMatT0=    0 NMatD0=    1 NMtDS0=    0 NMtDT0=    0
         I1Cent=           4 NGrid=           0.
 Petite list used in FoFCou.
 Requested convergence on RMS density matrix=1.00D-08 within 128 cycles.
 Requested convergence on MAX density matrix=1.00D-06.
 Requested convergence on             energy=1.00D-06.
 No special actions if energy rises.
 SCF Done:  E(RM062X) =  -196.496192699     A.U. after   10 cycles
             Convg  =    0.3468D-08             -V/T =  2.0045
 Calling FoFJK, ICntrl=      2127 FMM=F ISym2X=0 I1Cent= 0 IOpClX= 0 NMat=1 NMatS=1 NMatT=0.
 ***** Axes restored to original set *****
 -------------------------------------------------------------------
 Center     Atomic                   Forces (Hartrees/Bohr)
 Number     Number              X              Y              Z
 -------------------------------------------------------------------
      1        6          -0.002237451    0.000249184    0.000506658
      2        6           0.000989069    0.000556114    0.000757885
      3        6          -0.001966779   -0.001530696   -0.002139144
      4        6          -0.000643700   -0.001314753   -0.001896112
      5        6           0.002295760    0.000835953    0.001090454
      6        1           0.000034112   -0.000102240   -0.000155557
      7        1           0.000063042    0.000315790    0.000692518
      8        1           0.000054732    0.000527827    0.000548100
      9        1          -0.000018950    0.000153869    0.000228236
     10        1           0.000634581    0.000309086    0.000467345
     11        1           0.000632992    0.000355844    0.000436911
     12        1          -0.000149336    0.000192867    0.000343451
     13        1           0.000014844   -0.000426547   -0.000631572
     14        1          -0.000149771    0.000237673    0.000312491
     15        1           0.000446854   -0.000359970   -0.000561663
 -------------------------------------------------------------------
 Cartesian Forces:  Max     0.002295760 RMS     0.000883962

 GradGradGradGradGradGradGradGradGradGradGradGradGradGradGradGradGradGrad
 Berny optimization.
 Using GDIIS optimizer.
 Internal  Forces:  Max     0.002183917 RMS     0.000595422
 Search for a local minimum.
 Step number   2 out of a maximum of   70
 All quantities printed in internal units (Hartrees-Bohrs-Radians)
 Swaping is turned off.
 Update second derivatives using D2CorX and points    1    2
 DE= -3.54D-03 DEPred=-3.55D-03 R= 9.99D-01
 SS=  1.41D+00  RLast= 1.66D-01 DXNew= 5.0454D-01 4.9660D-01
 Trust test= 9.99D-01 RLast= 1.66D-01 DXMaxT set to 4.97D-01
 ITU=  1  0
     Eigenvalues ---    0.00658   0.00679   0.00738   0.01220   0.01547
     Eigenvalues ---    0.02745   0.07066   0.07111   0.07115   0.07130
     Eigenvalues ---    0.07168   0.07244   0.15628   0.16000   0.16000
     Eigenvalues ---    0.16000   0.16000   0.16000   0.16000   0.16000
     Eigenvalues ---    0.16000   0.16175   0.21953   0.24491   0.25123
     Eigenvalues ---    0.31068   0.31650   0.31960   0.32485   0.32531
     Eigenvalues ---    0.32570   0.32576   0.32579   0.32579   0.32583
     Eigenvalues ---    0.32588   0.34581   0.35437   0.55667
 DIIS coeff's:      0.98921      0.01079
 Cosine:  1.000 >  0.970
 Length:  1.000
 GDIIS step was calculated using  2 of the last  2 vectors.
 Iteration  1 RMS(Cart)=  0.00531258 RMS(Int)=  0.00001023
 Iteration  2 RMS(Cart)=  0.00001913 RMS(Int)=  0.00000207
 Iteration  3 RMS(Cart)=  0.00000000 RMS(Int)=  0.00000207
 Variable       Old X    -DE/DX   Delta X   Delta X   Delta X     New X
                                  (DIIS)     (GDIIS)  (Total)
    R1        2.84451   0.00189   0.00006   0.00579   0.00585   2.85036
    R2        2.05749   0.00013   0.00045  -0.00054  -0.00009   2.05740
    R3        2.06193   0.00052   0.00039   0.00076   0.00115   2.06308
    R4        2.06193   0.00052   0.00039   0.00077   0.00116   2.06308
    R5        2.83914  -0.00103   0.00008  -0.00339  -0.00330   2.83584
    R6        2.06433   0.00018   0.00036  -0.00023   0.00013   2.06446
    R7        2.05509   0.00076   0.00048   0.00129   0.00178   2.05686
    R8        2.06433   0.00017   0.00036  -0.00023   0.00013   2.06446
    R9        2.84783  -0.00218  -0.00010  -0.00651  -0.00661   2.84122
   R10        2.05515   0.00016   0.00046  -0.00047  -0.00001   2.05514
   R11        2.06281   0.00054   0.00038   0.00084   0.00121   2.06403
   R12        2.06281   0.00054   0.00038   0.00084   0.00122   2.06403
   R13        2.51214   0.00112   0.00043   0.00111   0.00154   2.51368
   R14        2.04734   0.00062   0.00007   0.00159   0.00166   2.04899
    A1        1.94332   0.00031  -0.00009   0.00328   0.00318   1.94650
    A2        1.93849   0.00040  -0.00019   0.00228   0.00208   1.94058
    A3        1.93850   0.00040  -0.00019   0.00228   0.00209   1.94058
    A4        1.88337  -0.00019   0.00005  -0.00014  -0.00010   1.88327
    A5        1.88337  -0.00019   0.00005  -0.00014  -0.00010   1.88327
    A6        1.87401  -0.00080   0.00041  -0.00808  -0.00767   1.86634
    A7        1.93451  -0.00018  -0.00026  -0.00112  -0.00138   1.93312
    A8        1.94329   0.00021   0.00017   0.00205   0.00221   1.94551
    A9        1.93452  -0.00018  -0.00026  -0.00113  -0.00140   1.93312
   A10        1.89117   0.00017   0.00000   0.00209   0.00209   1.89326
   A11        1.86669  -0.00018   0.00038  -0.00407  -0.00370   1.86299
   A12        1.89118   0.00017   0.00000   0.00208   0.00208   1.89326
   A13        1.94468  -0.00006  -0.00034   0.00152   0.00119   1.94587
   A14        1.94366   0.00012  -0.00022   0.00059   0.00037   1.94403
   A15        1.94366   0.00012  -0.00022   0.00059   0.00037   1.94403
   A16        1.87841   0.00016   0.00017   0.00171   0.00188   1.88029
   A17        1.87843   0.00015   0.00017   0.00169   0.00186   1.88030
   A18        1.87151  -0.00050   0.00047  -0.00631  -0.00584   1.86567
   A19        2.04569  -0.00180   0.00021  -0.00758  -0.00736   2.03833
   A20        2.10873   0.00112   0.00014   0.00414   0.00428   2.11301
   A21        2.12877   0.00068  -0.00036   0.00343   0.00308   2.13184
   A22        2.15609   0.00065  -0.00007   0.00304   0.00298   2.15907
   A23        2.05714  -0.00085  -0.00013  -0.00442  -0.00455   2.05259
   A24        2.06996   0.00020   0.00020   0.00137   0.00157   2.07153
    D1       -0.00005   0.00000   0.00000   0.00002   0.00002  -0.00003
    D2       -3.14159   0.00000   0.00000  -0.00005  -0.00005   3.14155
    D3        2.09935   0.00024  -0.00013   0.00360   0.00347   2.10283
    D4       -1.04219   0.00024  -0.00013   0.00353   0.00340  -1.03878
    D5       -2.09946  -0.00024   0.00013  -0.00356  -0.00343  -2.10289
    D6        1.04219  -0.00024   0.00013  -0.00363  -0.00350   1.03868
    D7        1.03506  -0.00023   0.00007  -0.00332  -0.00325   1.03182
    D8       -2.10658  -0.00023   0.00007  -0.00325  -0.00317  -2.10976
    D9       -3.14155   0.00000   0.00000  -0.00005  -0.00005   3.14159
   D10       -0.00001   0.00000   0.00000   0.00003   0.00003   0.00001
   D11       -1.03495   0.00023  -0.00007   0.00320   0.00313  -1.03182
   D12        2.10659   0.00023  -0.00007   0.00328   0.00320   2.10979
   D13        3.14155   0.00000   0.00000   0.00000   0.00000   3.14155
   D14       -0.00006   0.00000   0.00000   0.00000   0.00000  -0.00005
   D15        1.04401  -0.00024   0.00015  -0.00361  -0.00346   1.04055
   D16       -2.09759  -0.00024   0.00015  -0.00361  -0.00346  -2.10105
   D17       -1.04407   0.00024  -0.00015   0.00359   0.00343  -1.04064
   D18        2.09751   0.00024  -0.00015   0.00359   0.00344   2.10095
   D19       -0.00005   0.00000   0.00000   0.00005   0.00006   0.00001
   D20        3.14155   0.00000   0.00000   0.00005   0.00005  -3.14158
   D21       -3.14158   0.00000   0.00000  -0.00002  -0.00002   3.14158
   D22        0.00002   0.00000   0.00000  -0.00002  -0.00003  -0.00001
         Item               Value     Threshold  Converged?
 Maximum Force            0.002184     0.000002     NO 
 RMS     Force            0.000595     0.000001     NO 
 Maximum Displacement     0.013933     0.000006     NO 
 RMS     Displacement     0.005324     0.000004     NO 
 Predicted change in Energy=-4.295038D-05
 GradGradGradGradGradGradGradGradGradGradGradGradGradGradGradGradGradGrad

                          Input orientation:                          
 ---------------------------------------------------------------------
 Center     Atomic      Atomic             Coordinates (Angstroms)
 Number     Number       Type             X           Y           Z
 ---------------------------------------------------------------------
      1          6           0       -0.370218    0.777297    1.174119
      2          6           0       -1.846718   -0.437307   -0.532347
      3          6           0        2.022659   -0.111306   -0.291061
      4          6           0       -0.467205   -0.067909   -0.071405
      5          6           0        0.624993   -0.460680   -0.721190
      6          1           0        2.764302   -0.534795   -0.964372
      7          1           0        2.234783   -0.483138    0.713789
      8          1           0        2.173557    0.970204   -0.267745
      9          1           0       -1.354608    1.008415    1.577715
     10          1           0        0.200763    0.268148    1.952986
     11          1           0        0.139602    1.721225    0.971708
     12          1           0       -2.438844    0.457451   -0.737949
     13          1           0       -1.815791   -1.045314   -1.434613
     14          1           0       -2.377661   -0.994784    0.242764
     15          1           0        0.510488   -1.067405   -1.612501
 ---------------------------------------------------------------------
                    Distance matrix (angstroms):
                    1          2          3          4          5
     1  C    0.000000
     2  C    2.562683   0.000000
     3  C    2.943166   3.890575   0.000000
     4  C    1.508347   1.500659   2.499911   0.000000
     5  C    2.472899   2.479025   1.503510   1.330183   0.000000
     6  H    4.014965   4.632241   1.087532   3.384968   2.154361
     7  H    2.930295   4.267740   1.092236   2.844237   2.156638
     8  H    2.930354   4.267753   1.092235   2.844267   2.156639
     9  H    1.088728   2.604736   4.018959   2.159990   3.370760
    10  H    1.091735   3.296472   2.915311   2.158073   2.803993
    11  H    1.091736   3.296500   2.915246   2.158078   2.803964
    12  H    2.835052   1.092464   4.519757   2.146542   3.198491
    13  H    3.495293   1.088445   4.112636   2.152287   2.609253
    14  H    2.835052   1.092464   4.519769   2.146541   3.198500
    15  H    3.455983   2.668366   2.224183   2.080830   1.084280
                    6          7          8          9         10
     6  H    0.000000
     7  H    1.760478   0.000000
     8  H    1.760480   1.754810   0.000000
     9  H    5.080268   3.981812   3.981850   0.000000
    10  H    3.965782   2.497454   3.052285   1.762953   0.000000
    11  H    3.965739   3.052134   2.497449   1.762954   1.754446
    12  H    5.301749   4.983476   4.664574   2.615613   3.774188
    13  H    4.632387   4.619396   4.619393   3.674862   4.155418
    14  H    5.301749   4.664577   4.983511   2.615633   3.341875
    15  H    2.404875   2.954012   2.953984   4.238525   3.819991
                   11         12         13         14         15
    11  H    0.000000
    12  H    3.341921   0.000000
    13  H    4.155440   1.769700   0.000000
    14  H    3.774212   1.753433   1.769702   0.000000
    15  H    3.819967   3.433451   2.333175   3.433465   0.000000
 Stoichiometry    C5H10
 Framework group  C1[X(C5H10)]
 Deg. of freedom    39
 Full point group                 C1      NOp   1
 Largest Abelian subgroup         C1      NOp   1
 Largest concise Abelian subgroup C1      NOp   1
                         Standard orientation:                         
 ---------------------------------------------------------------------
 Center     Atomic      Atomic             Coordinates (Angstroms)
 Number     Number       Type             X           Y           Z
 ---------------------------------------------------------------------
      1          6           0        0.422000    1.459730    0.000001
      2          6           0        1.818263   -0.689175    0.000002
      3          6           0       -2.036022   -0.159021    0.000003
      4          6           0        0.461427   -0.048101   -0.000008
      5          6           0       -0.659631   -0.764073   -0.000003
      6          1           0       -2.807968   -0.925066   -0.000041
      7          1           0       -2.193619    0.472122   -0.877380
      8          1           0       -2.193642    0.472053    0.877430
      9          1           0        1.424002    1.885549    0.000043
     10          1           0       -0.104513    1.840667   -0.877243
     11          1           0       -0.104586    1.840663    0.877203
     12          1           0        2.392351   -0.380539    0.876726
     13          1           0        1.745742   -1.775201   -0.000002
     14          1           0        2.392367   -0.380530   -0.876707
     15          1           0       -0.586362   -1.845875    0.000002
 ---------------------------------------------------------------------
 Rotational constants (GHZ):      8.1709724      3.6446874      2.6430830
 Standard basis: 6-311+G(2df,2p) (5D, 7F)
 There are   260 symmetry adapted basis functions of A   symmetry.
 Integral buffers will be    131072 words long.
 Raffenetti 2 integral format.
 Two-electron integral symmetry is turned on.
   260 basis functions,   370 primitive gaussians,   285 cartesian basis functions
    20 alpha electrons       20 beta electrons
       nuclear repulsion energy       175.7382963805 Hartrees.
 NAtoms=   15 NActive=   15 NUniq=   15 SFac= 1.00D+00 NAtFMM=   50 NAOKFM=F Big=F
 One-electron integrals computed using PRISM.
 NBasis=   260 RedAO= T  NBF=   260
 NBsUse=   260 1.00D-06 NBFU=   260
 Initial guess read from the read-write file.
 B after Tr=     0.000000    0.000000    0.000000
         Rot=    1.000000    0.000000    0.000000    0.000000 Ang=   0.00 deg.
 Initial guess orbital symmetries:
       Occupied  (A) (A) (A) (A) (A) (A) (A) (A) (A) (A) (A) (A)
                 (A) (A) (A) (A) (A) (A) (A) (A)
       Virtual   (A) (A) (A) (A) (A) (A) (A) (A) (A) (A) (A) (A)
                 (A) (A) (A) (A) (A) (A) (A) (A) (A) (A) (A) (A)
                 (A) (A) (A) (A) (A) (A) (A) (A) (A) (A) (A) (A)
                 (A) (A) (A) (A) (A) (A) (A) (A) (A) (A) (A) (A)
                 (A) (A) (A) (A) (A) (A) (A) (A) (A) (A) (A) (A)
                 (A) (A) (A) (A) (A) (A) (A) (A) (A) (A) (A) (A)
                 (A) (A) (A) (A) (A) (A) (A) (A) (A) (A) (A) (A)
                 (A) (A) (A) (A) (A) (A) (A) (A) (A) (A) (A) (A)
                 (A) (A) (A) (A) (A) (A) (A) (A) (A) (A) (A) (A)
                 (A) (A) (A) (A) (A) (A) (A) (A) (A) (A) (A) (A)
                 (A) (A) (A) (A) (A) (A) (A) (A) (A) (A) (A) (A)
                 (A) (A) (A) (A) (A) (A) (A) (A) (A) (A) (A) (A)
                 (A) (A) (A) (A) (A) (A) (A) (A) (A) (A) (A) (A)
                 (A) (A) (A) (A) (A) (A) (A) (A) (A) (A) (A) (A)
                 (A) (A) (A) (A) (A) (A) (A) (A) (A) (A) (A) (A)
                 (A) (A) (A) (A) (A) (A) (A) (A) (A) (A) (A) (A)
                 (A) (A) (A) (A) (A) (A) (A) (A) (A) (A) (A) (A)
                 (A) (A) (A) (A) (A) (A) (A) (A) (A) (A) (A) (A)
                 (A) (A) (A) (A) (A) (A) (A) (A) (A) (A) (A) (A)
                 (A) (A) (A) (A) (A) (A) (A) (A) (A) (A) (A) (A)
 Requested convergence on RMS density matrix=1.00D-08 within 128 cycles.
 Requested convergence on MAX density matrix=1.00D-06.
 Requested convergence on             energy=1.00D-06.
 No special actions if energy rises.
 SCF Done:  E(RM062X) =  -196.496242530     A.U. after    9 cycles
             Convg  =    0.2683D-08             -V/T =  2.0045
 Calling FoFJK, ICntrl=      2127 FMM=F ISym2X=0 I1Cent= 0 IOpClX= 0 NMat=1 NMatS=1 NMatT=0.
 ***** Axes restored to original set *****
 -------------------------------------------------------------------
 Center     Atomic                   Forces (Hartrees/Bohr)
 Number     Number              X              Y              Z
 -------------------------------------------------------------------
      1        6          -0.000398706   -0.000132503   -0.000170008
      2        6           0.000236264    0.000059508    0.000073763
      3        6          -0.000511851   -0.000340313   -0.000470261
      4        6           0.000203661   -0.000338053   -0.000516968
      5        6           0.000157303    0.000408136    0.000594628
      6        1           0.000068757   -0.000011836   -0.000022171
      7        1           0.000110871    0.000066309    0.000288200
      8        1           0.000103436    0.000249220    0.000164579
      9        1          -0.000084701   -0.000070082   -0.000098519
     10        1           0.000230440   -0.000045962    0.000144355
     11        1           0.000221541    0.000163594    0.000002015
     12        1          -0.000096483    0.000160650    0.000005562
     13        1          -0.000091496   -0.000071409   -0.000099632
     14        1          -0.000087577   -0.000060558    0.000154610
     15        1          -0.000061460   -0.000036702   -0.000050152
 -------------------------------------------------------------------
 Cartesian Forces:  Max     0.000594628 RMS     0.000226922

 GradGradGradGradGradGradGradGradGradGradGradGradGradGradGradGradGradGrad
 Berny optimization.
 Using GDIIS optimizer.
 Internal  Forces:  Max     0.000556225 RMS     0.000148313
 Search for a local minimum.
 Step number   3 out of a maximum of   70
 All quantities printed in internal units (Hartrees-Bohrs-Radians)
 Swaping is turned off.
 Update second derivatives using D2CorX and points    1    2    3
 DE= -4.98D-05 DEPred=-4.30D-05 R= 1.16D+00
 SS=  1.41D+00  RLast= 2.25D-02 DXNew= 8.3518D-01 6.7369D-02
 Trust test= 1.16D+00 RLast= 2.25D-02 DXMaxT set to 4.97D-01
 ITU=  1  1  0
     Eigenvalues ---    0.00658   0.00679   0.00738   0.01225   0.01550
     Eigenvalues ---    0.02745   0.06481   0.07066   0.07095   0.07107
     Eigenvalues ---    0.07166   0.07247   0.14947   0.15999   0.16000
     Eigenvalues ---    0.16000   0.16000   0.16000   0.16000   0.16000
     Eigenvalues ---    0.16045   0.16623   0.21435   0.22803   0.26000
     Eigenvalues ---    0.31440   0.31817   0.32171   0.32485   0.32565
     Eigenvalues ---    0.32575   0.32576   0.32579   0.32580   0.32583
     Eigenvalues ---    0.33009   0.34069   0.35240   0.57575
 DIIS coeff's:      1.12054     -0.11814     -0.00240
 Cosine:  1.000 >  0.840
 Length:  1.000
 GDIIS step was calculated using  3 of the last  3 vectors.
 Iteration  1 RMS(Cart)=  0.00190866 RMS(Int)=  0.00000207
 Iteration  2 RMS(Cart)=  0.00000261 RMS(Int)=  0.00000074
 Iteration  3 RMS(Cart)=  0.00000000 RMS(Int)=  0.00000074
 Variable       Old X    -DE/DX   Delta X   Delta X   Delta X     New X
                                  (DIIS)     (GDIIS)  (Total)
    R1        2.85036  -0.00014   0.00069  -0.00083  -0.00014   2.85023
    R2        2.05740   0.00002  -0.00011   0.00009  -0.00002   2.05738
    R3        2.06308   0.00025   0.00005   0.00080   0.00085   2.06394
    R4        2.06308   0.00025   0.00005   0.00080   0.00085   2.06393
    R5        2.83584  -0.00003  -0.00042   0.00008  -0.00033   2.83550
    R6        2.06446   0.00019  -0.00006   0.00065   0.00058   2.06504
    R7        2.05686   0.00011   0.00011   0.00030   0.00041   2.05727
    R8        2.06446   0.00019  -0.00006   0.00065   0.00058   2.06504
    R9        2.84122  -0.00025  -0.00077  -0.00051  -0.00129   2.83994
   R10        2.05514   0.00007  -0.00010   0.00026   0.00015   2.05529
   R11        2.06403   0.00026   0.00006   0.00083   0.00090   2.06492
   R12        2.06403   0.00026   0.00006   0.00083   0.00090   2.06492
   R13        2.51368  -0.00044   0.00009  -0.00097  -0.00088   2.51280
   R14        2.04899   0.00007   0.00018   0.00014   0.00032   2.04931
    A1        1.94650  -0.00017   0.00040  -0.00112  -0.00072   1.94578
    A2        1.94058   0.00004   0.00029   0.00003   0.00033   1.94090
    A3        1.94058   0.00004   0.00029   0.00002   0.00032   1.94090
    A4        1.88327   0.00010  -0.00002   0.00096   0.00094   1.88421
    A5        1.88327   0.00010  -0.00002   0.00096   0.00094   1.88421
    A6        1.86634  -0.00011  -0.00101  -0.00079  -0.00180   1.86454
    A7        1.93312  -0.00007  -0.00011  -0.00053  -0.00064   1.93248
    A8        1.94551   0.00019   0.00023   0.00145   0.00168   1.94719
    A9        1.93312  -0.00007  -0.00011  -0.00053  -0.00064   1.93248
   A10        1.89326  -0.00002   0.00025  -0.00003   0.00022   1.89348
   A11        1.86299  -0.00001  -0.00053  -0.00040  -0.00093   1.86206
   A12        1.89326  -0.00002   0.00025  -0.00003   0.00022   1.89348
   A13        1.94587   0.00001   0.00022   0.00031   0.00052   1.94639
   A14        1.94403   0.00011   0.00009   0.00061   0.00071   1.94473
   A15        1.94403   0.00011   0.00009   0.00061   0.00070   1.94473
   A16        1.88029  -0.00003   0.00019  -0.00002   0.00016   1.88045
   A17        1.88030  -0.00003   0.00019  -0.00003   0.00016   1.88045
   A18        1.86567  -0.00020  -0.00081  -0.00159  -0.00240   1.86327
   A19        2.03833  -0.00034  -0.00093  -0.00111  -0.00205   2.03628
   A20        2.11301  -0.00021   0.00048  -0.00120  -0.00071   2.11230
   A21        2.13184   0.00056   0.00045   0.00231   0.00276   2.13461
   A22        2.15907   0.00007   0.00037   0.00019   0.00056   2.15963
   A23        2.05259   0.00003  -0.00052   0.00052   0.00000   2.05259
   A24        2.07153  -0.00010   0.00015  -0.00071  -0.00057   2.07097
    D1       -0.00003   0.00000   0.00000  -0.00002  -0.00002  -0.00005
    D2        3.14155   0.00000  -0.00001   0.00001   0.00001   3.14155
    D3        2.10283   0.00004   0.00045   0.00045   0.00090   2.10373
    D4       -1.03878   0.00004   0.00044   0.00049   0.00093  -1.03785
    D5       -2.10289  -0.00004  -0.00044  -0.00050  -0.00094  -2.10383
    D6        1.03868  -0.00004  -0.00045  -0.00046  -0.00091   1.03777
    D7        1.03182  -0.00005  -0.00041  -0.00056  -0.00097   1.03085
    D8       -2.10976  -0.00005  -0.00040  -0.00060  -0.00100  -2.11076
    D9        3.14159   0.00000  -0.00001   0.00002   0.00001  -3.14158
   D10        0.00001   0.00000   0.00000  -0.00002  -0.00001   0.00000
   D11       -1.03182   0.00005   0.00039   0.00060   0.00099  -1.03083
   D12        2.10979   0.00005   0.00040   0.00056   0.00097   2.11076
   D13        3.14155   0.00000   0.00000  -0.00001  -0.00001   3.14153
   D14       -0.00005   0.00000   0.00000   0.00000   0.00000  -0.00006
   D15        1.04055  -0.00005  -0.00045  -0.00061  -0.00107   1.03949
   D16       -2.10105  -0.00005  -0.00045  -0.00060  -0.00105  -2.10210
   D17       -1.04064   0.00005   0.00045   0.00058   0.00103  -1.03961
   D18        2.10095   0.00005   0.00045   0.00059   0.00104   2.10199
   D19        0.00001   0.00000   0.00001  -0.00002  -0.00001  -0.00001
   D20       -3.14158   0.00000   0.00001  -0.00003  -0.00002   3.14158
   D21        3.14158   0.00000   0.00000   0.00002   0.00002  -3.14159
   D22       -0.00001   0.00000   0.00000   0.00001   0.00001   0.00000
         Item               Value     Threshold  Converged?
 Maximum Force            0.000556     0.000002     NO 
 RMS     Force            0.000148     0.000001     NO 
 Maximum Displacement     0.007399     0.000006     NO 
 RMS     Displacement     0.001909     0.000004     NO 
 Predicted change in Energy=-3.271610D-06
 GradGradGradGradGradGradGradGradGradGradGradGradGradGradGradGradGradGrad

                          Input orientation:                          
 ---------------------------------------------------------------------
 Center     Atomic      Atomic             Coordinates (Angstroms)
 Number     Number       Type             X           Y           Z
 ---------------------------------------------------------------------
      1          6           0       -0.370491    0.776224    1.172552
      2          6           0       -1.847076   -0.437094   -0.532011
      3          6           0        2.022609   -0.111156   -0.290836
      4          6           0       -0.466789   -0.068932   -0.072973
      5          6           0        0.625911   -0.460830   -0.721485
      6          1           0        2.765205   -0.534197   -0.963511
      7          1           0        2.234790   -0.481873    0.714928
      8          1           0        2.173612    0.970789   -0.266182
      9          1           0       -1.355415    1.006676    1.575193
     10          1           0        0.201301    0.267653    1.951836
     11          1           0        0.140163    1.720368    0.970815
     12          1           0       -2.438622    0.458836   -0.735803
     13          1           0       -1.819707   -1.045377   -1.434465
     14          1           0       -2.377428   -0.993308    0.244844
     15          1           0        0.512037   -1.067678   -1.613001
 ---------------------------------------------------------------------
                    Distance matrix (angstroms):
                    1          2          3          4          5
     1  C    0.000000
     2  C    2.560855   0.000000
     3  C    2.942087   3.890869   0.000000
     4  C    1.508275   1.500483   2.499270   0.000000
     5  C    2.471941   2.480348   1.502829   1.329716   0.000000
     6  H    4.014044   4.633438   1.087614   3.384570   2.154191
     7  H    2.929115   4.268312   1.092709   2.844264   2.156900
     8  H    2.929210   4.268341   1.092710   2.844305   2.156899
     9  H    1.088716   2.601252   4.017792   2.159407   3.369563
    10  H    1.092188   3.295756   2.913801   2.158583   2.803145
    11  H    1.092187   3.295793   2.913735   2.158583   2.803116
    12  H    2.831911   1.092772   4.519455   2.146162   3.199586
    13  H    3.494996   1.088660   4.116315   2.153484   2.613634
    14  H    2.831904   1.092772   4.519454   2.146163   3.199588
    15  H    3.455160   2.670503   2.223709   2.080211   1.084450
                    6          7          8          9         10
     6  H    0.000000
     7  H    1.761032   0.000000
     8  H    1.761032   1.754009   0.000000
     9  H    5.079253   3.980628   3.980701   0.000000
    10  H    3.964317   2.495357   3.050249   1.763910   0.000000
    11  H    3.964281   3.050050   2.495385   1.763910   1.754001
    12  H    5.302620   4.983005   4.664263   2.610397   3.772154
    13  H    4.637296   4.623459   4.623463   3.672129   4.156387
    14  H    5.302600   4.664236   4.983050   2.610417   3.339713
    15  H    2.404830   2.954708   2.954675   4.237322   3.819388
                   11         12         13         14         15
    11  H    0.000000
    12  H    3.339782   0.000000
    13  H    4.156418   1.770267   0.000000
    14  H    3.772179   1.753321   1.770266   0.000000
    15  H    3.819372   3.436002   2.338675   3.436003   0.000000
 Stoichiometry    C5H10
 Framework group  C1[X(C5H10)]
 Deg. of freedom    39
 Full point group                 C1      NOp   1
 Largest Abelian subgroup         C1      NOp   1
 Largest concise Abelian subgroup C1      NOp   1
                         Standard orientation:                         
 ---------------------------------------------------------------------
 Center     Atomic      Atomic             Coordinates (Angstroms)
 Number     Number       Type             X           Y           Z
 ---------------------------------------------------------------------
      1          6           0        0.422006    1.458332   -0.000001
      2          6           0        1.818872   -0.688001   -0.000001
      3          6           0       -2.035832   -0.158736   -0.000001
      4          6           0        0.461047   -0.049438    0.000004
      5          6           0       -0.660309   -0.764074    0.000000
      6          1           0       -2.808546   -0.924121   -0.000065
      7          1           0       -2.193574    0.473762   -0.876972
      8          1           0       -2.193619    0.473659    0.877037
      9          1           0        1.424411    1.883169    0.000044
     10          1           0       -0.105376    1.839865   -0.877027
     11          1           0       -0.105457    1.839868    0.876975
     12          1           0        2.392403   -0.377075    0.876662
     13          1           0        1.750115   -1.774488   -0.000007
     14          1           0        2.392404   -0.377065   -0.876659
     15          1           0       -0.587464   -1.846075   -0.000006
 ---------------------------------------------------------------------
 Rotational constants (GHZ):      8.1830557      3.6435527      2.6436822
 Standard basis: 6-311+G(2df,2p) (5D, 7F)
 There are   260 symmetry adapted basis functions of A   symmetry.
 Integral buffers will be    131072 words long.
 Raffenetti 2 integral format.
 Two-electron integral symmetry is turned on.
   260 basis functions,   370 primitive gaussians,   285 cartesian basis functions
    20 alpha electrons       20 beta electrons
       nuclear repulsion energy       175.7555747743 Hartrees.
 NAtoms=   15 NActive=   15 NUniq=   15 SFac= 1.00D+00 NAtFMM=   50 NAOKFM=F Big=F
 One-electron integrals computed using PRISM.
 NBasis=   260 RedAO= T  NBF=   260
 NBsUse=   260 1.00D-06 NBFU=   260
 Initial guess read from the read-write file.
 B after Tr=     0.000000    0.000000    0.000000
         Rot=    1.000000    0.000000    0.000000    0.000000 Ang=   0.00 deg.
 Initial guess orbital symmetries:
       Occupied  (A) (A) (A) (A) (A) (A) (A) (A) (A) (A) (A) (A)
                 (A) (A) (A) (A) (A) (A) (A) (A)
       Virtual   (A) (A) (A) (A) (A) (A) (A) (A) (A) (A) (A) (A)
                 (A) (A) (A) (A) (A) (A) (A) (A) (A) (A) (A) (A)
                 (A) (A) (A) (A) (A) (A) (A) (A) (A) (A) (A) (A)
                 (A) (A) (A) (A) (A) (A) (A) (A) (A) (A) (A) (A)
                 (A) (A) (A) (A) (A) (A) (A) (A) (A) (A) (A) (A)
                 (A) (A) (A) (A) (A) (A) (A) (A) (A) (A) (A) (A)
                 (A) (A) (A) (A) (A) (A) (A) (A) (A) (A) (A) (A)
                 (A) (A) (A) (A) (A) (A) (A) (A) (A) (A) (A) (A)
                 (A) (A) (A) (A) (A) (A) (A) (A) (A) (A) (A) (A)
                 (A) (A) (A) (A) (A) (A) (A) (A) (A) (A) (A) (A)
                 (A) (A) (A) (A) (A) (A) (A) (A) (A) (A) (A) (A)
                 (A) (A) (A) (A) (A) (A) (A) (A) (A) (A) (A) (A)
                 (A) (A) (A) (A) (A) (A) (A) (A) (A) (A) (A) (A)
                 (A) (A) (A) (A) (A) (A) (A) (A) (A) (A) (A) (A)
                 (A) (A) (A) (A) (A) (A) (A) (A) (A) (A) (A) (A)
                 (A) (A) (A) (A) (A) (A) (A) (A) (A) (A) (A) (A)
                 (A) (A) (A) (A) (A) (A) (A) (A) (A) (A) (A) (A)
                 (A) (A) (A) (A) (A) (A) (A) (A) (A) (A) (A) (A)
                 (A) (A) (A) (A) (A) (A) (A) (A) (A) (A) (A) (A)
                 (A) (A) (A) (A) (A) (A) (A) (A) (A) (A) (A) (A)
 Requested convergence on RMS density matrix=1.00D-08 within 128 cycles.
 Requested convergence on MAX density matrix=1.00D-06.
 Requested convergence on             energy=1.00D-06.
 No special actions if energy rises.
 SCF Done:  E(RM062X) =  -196.496245693     A.U. after    8 cycles
             Convg  =    0.4270D-08             -V/T =  2.0045
 Calling FoFJK, ICntrl=      2127 FMM=F ISym2X=0 I1Cent= 0 IOpClX= 0 NMat=1 NMatS=1 NMatT=0.
 ***** Axes restored to original set *****
 -------------------------------------------------------------------
 Center     Atomic                   Forces (Hartrees/Bohr)
 Number     Number              X              Y              Z
 -------------------------------------------------------------------
      1        6           0.000002801    0.000029139    0.000042204
      2        6           0.000015850   -0.000003667   -0.000006800
      3        6          -0.000028955    0.000006197    0.000010804
      4        6          -0.000079327   -0.000004805   -0.000000467
      5        6           0.000076624   -0.000020687   -0.000035078
      6        1           0.000016947    0.000016369    0.000023366
      7        1           0.000020093    0.000007438    0.000005076
      8        1           0.000020392    0.000003152    0.000007862
      9        1          -0.000003541   -0.000002492   -0.000003627
     10        1          -0.000023491   -0.000004108   -0.000017846
     11        1          -0.000022842   -0.000016262   -0.000009347
     12        1           0.000019784    0.000000085   -0.000030170
     13        1          -0.000021437    0.000011076    0.000017671
     14        1           0.000021110   -0.000026788   -0.000011894
     15        1          -0.000014006    0.000005354    0.000008245
 -------------------------------------------------------------------
 Cartesian Forces:  Max     0.000079327 RMS     0.000023781

 GradGradGradGradGradGradGradGradGradGradGradGradGradGradGradGradGradGrad
 Berny optimization.
[...]
 ! R11   R(3,7)                  1.0867         -DE/DX =    0.0                 !
 ! R12   R(3,8)                  1.0918         -DE/DX =    0.0                 !
 ! R13   R(4,5)                  1.3312         -DE/DX =    0.0                 !
 ! R14   R(5,15)                 1.0865         -DE/DX =    0.0                 !
 ! A1    A(4,1,9)              110.0791         -DE/DX =    0.0                 !
 ! A2    A(4,1,10)             110.0791         -DE/DX =    0.0                 !
 ! A3    A(4,1,11)             113.4948         -DE/DX =    0.0                 !
 ! A4    A(9,1,10)             106.5934         -DE/DX =    0.0                 !
 ! A5    A(9,1,11)             108.1677         -DE/DX =    0.0                 !
 ! A6    A(10,1,11)            108.1677         -DE/DX =    0.0                 !
 ! A7    A(4,2,12)             110.6364         -DE/DX =    0.0                 !
 ! A8    A(4,2,13)             111.7712         -DE/DX =    0.0                 !
 ! A9    A(4,2,14)             110.6364         -DE/DX =    0.0                 !
 ! A10   A(12,2,13)            108.4673         -DE/DX =    0.0                 !
 ! A11   A(12,2,14)            106.6914         -DE/DX =    0.0                 !
 ! A12   A(13,2,14)            108.4673         -DE/DX =    0.0                 !
 ! A13   A(5,3,6)              110.6005         -DE/DX =    0.0                 !
 ! A14   A(5,3,7)              113.0044         -DE/DX =    0.0                 !
 ! A15   A(5,3,8)              110.6005         -DE/DX =    0.0                 !
 ! A16   A(6,3,7)              107.8301         -DE/DX =    0.0                 !
 ! A17   A(6,3,8)              106.72           -DE/DX =    0.0                 !
 ! A18   A(7,3,8)              107.8301         -DE/DX =    0.0                 !
 ! A19   A(1,4,2)              113.9278         -DE/DX =    0.0                 !
 ! A20   A(1,4,5)              125.0864         -DE/DX =    0.0                 !
 ! A21   A(2,4,5)              120.9859         -DE/DX =    0.0                 !
 ! A22   A(3,5,4)              128.1797         -DE/DX =    0.0                 !
 ! A23   A(3,5,15)             114.8686         -DE/DX =    0.0                 !
 ! A24   A(4,5,15)             116.9517         -DE/DX =    0.0                 !
 ! D1    D(9,1,4,2)            -58.6082         -DE/DX =    0.0                 !
 ! D2    D(9,1,4,5)            121.3918         -DE/DX =    0.0                 !
 ! D3    D(10,1,4,2)            58.6081         -DE/DX =    0.0                 !
 ! D4    D(10,1,4,5)          -121.3919         -DE/DX =    0.0                 !
 ! D5    D(11,1,4,2)           179.9999         -DE/DX =    0.0                 !
 ! D6    D(11,1,4,5)            -0.0001         -DE/DX =    0.0                 !
 ! D7    D(12,2,4,1)            59.01           -DE/DX =    0.0                 !
 ! D8    D(12,2,4,5)          -120.99           -DE/DX =    0.0                 !
 ! D9    D(13,2,4,1)           180.0            -DE/DX =    0.0                 !
 ! D10   D(13,2,4,5)             0.0            -DE/DX =    0.0                 !
 ! D11   D(14,2,4,1)           -59.01           -DE/DX =    0.0                 !
 ! D12   D(14,2,4,5)           120.99           -DE/DX =    0.0                 !
 ! D13   D(6,3,5,4)            120.9947         -DE/DX =    0.0                 !
 ! D14   D(6,3,5,15)           -59.0053         -DE/DX =    0.0                 !
 ! D15   D(7,3,5,4)             -0.0001         -DE/DX =    0.0                 !
 ! D16   D(7,3,5,15)          -180.0001         -DE/DX =    0.0                 !
 ! D17   D(8,3,5,4)           -120.9949         -DE/DX =    0.0                 !
 ! D18   D(8,3,5,15)            59.0051         -DE/DX =    0.0                 !
 ! D19   D(1,4,5,3)              0.0            -DE/DX =    0.0                 !
 ! D20   D(1,4,5,15)           180.0            -DE/DX =    0.0                 !
 ! D21   D(2,4,5,3)            180.0            -DE/DX =    0.0                 !
 ! D22   D(2,4,5,15)             0.0            -DE/DX =    0.0                 !
 --------------------------------------------------------------------------------
 GradGradGradGradGradGradGradGradGradGradGradGradGradGradGradGradGradGrad


 Test job not archived.
 1\1\GINC-COMPUTE-3-046\Freq\RM062X\6-311+G(2df,2p)\C5H10\ROOT\16-Aug-2
 017\0\\#N Geom=AllCheck Guess=TCheck SCRF=Check Test GenChk RM062X/6-3
 11+G(2df,2p) Freq\\InChI=1S/C5H10/c1-4-5(2)3/h4H,1-3H3\\0,1\C,-0.43703
 75156,0.6282462658,1.3169286879\C,-1.8025710062,-0.4976803519,-0.47719
 23855\C,2.0672127821,0.0477629326,-0.4532365558\C,-0.4378315417,-0.067
 8605304,-0.0144897952\C,0.6430718588,-0.3057183506,-0.7542570786\H,2.6
 88708657,-0.849510944,-0.428384055\H,2.1855971112,0.5609505847,0.49728
 17046\H,2.4764530759,0.6917793049,-1.2340953488\H,-1.0735857814,1.5154
 285669,1.276767441\H,-0.8613349984,-0.0258390807,2.0824631796\H,0.5516
 890426,0.9354836755,1.6441951246\H,-2.4700463372,0.3635840618,-0.56023
 41937\H,-1.762495041,-0.9971647083,-1.4432466685\H,-2.2576317976,-1.17
 88564243,0.2460741494\H,0.4899014917,-0.820505005,-1.6986742044\\Versi
 on=EM64L-G09RevB.01\State=1-A\HF=-196.4983463\RMSD=1.440e-09\RMSF=3.47
 5e-06\ZeroPoint=0.1370188\Thermal=0.1437774\Dipole=-0.0181841,0.036415
 7,0.0744524\DipoleDeriv=-0.0227968,-0.0204504,0.0033621,-0.0312903,0.0
 892241,-0.0859529,-0.0173745,-0.0888085,-0.0268453,-0.0299842,-0.04324
 43,-0.0377379,-0.016986,0.104028,-0.0658361,0.0124935,-0.0589185,0.024
 7826,-0.0768803,-0.0278786,0.003762,-0.0157424,0.1110424,-0.0509396,0.
 0269773,-0.0477423,0.0414026,0.1814788,0.0404985,-0.0266611,0.0213577,
 -0.1139664,0.1853569,-0.0632765,0.1803144,0.1478018,0.1416289,0.040848
 2,-0.0286078,0.0940066,-0.204892,0.0875064,0.0730828,0.1015104,-0.0886
 489,-0.0720634,0.0492708,0.0162889,0.0946605,-0.0534269,0.0037775,-0.0
 372275,-0.0032153,0.0874221,0.0338125,0.0002941,0.0081017,-0.0324453,0
 .0235778,-0.0657765,-0.0545273,-0.0744014,-0.0655313,-0.0372086,-0.024
 3149,0.0388209,-0.0945848,0.0172623,0.0825359,0.0447425,0.0829742,-0.0
 181218,-0.0025841,0.0982398,0.0093178,0.1089472,-0.0493644,-0.0464993,
 0.0019667,0.0211737,0.0217412,0.0378371,-0.0434658,0.0625471,-0.048052
 3,-0.0117128,0.0852018,0.0816073,0.0191412,-0.0563317,-0.0738764,-0.06
 20176,-0.0813077,-0.0395831,0.0457682,-0.0317689,-0.0383912,-0.0258588
 ,0.0284734,-0.0716667,0.0463146,0.0003279,0.109914,-0.0602783,0.009782
 7,-0.0304056,-0.0082598,0.077648,0.0344266,0.0155001,0.0387385,-0.0242
 501,0.0271515,-0.0735151,-0.0373023,-0.0839869,-0.0819162,-0.0337578,-
 0.0322562,0.0278789,-0.0958326,0.0053891,0.0736423,0.0586562,0.0916909
 ,-0.0259283,-0.0083656,-0.0373384,-0.0348313,-0.0301192,0.0701974,-0.1
 075152,-0.0210213,-0.1056134,-0.0659482\Polar=76.3911899,-0.1282359,51
 .0140752,-7.6615108,5.3407876,60.4749308\PG=C01 [X(C5H10)]\NImag=0\\0.
 59264788,0.01685293,0.53008105,0.01731957,-0.01579064,0.50124528,-0.00
 147363,-0.00278994,-0.00408895,0.50158449,-0.01592017,-0.00356207,-0.0
 0886428,-0.01714504,0.54748669,-0.02920660,-0.01232331,-0.01261574,-0.
 02261163,0.01835908,0.58132771,0.00096513,0.00011086,-0.00156169,0.001
 32430,-0.00025152,0.00282291,0.49746770,0.00083533,-0.00427705,0.00263
 199,-0.00049228,0.01044686,-0.00641140,-0.00873883,0.54496184,-0.00017
 580,0.00282284,-0.00032166,0.00236234,-0.00647483,0.00085776,-0.006500
 68,0.01897090,0.57425142,-0.08849793,-0.00358567,-0.00330998,-0.193213
 56,-0.03782744,-0.04087479,-0.02601636,0.00400704,0.01568596,0.7296966
 4,-0.00317874,-0.10644724,-0.05927212,-0.03580573,-0.08804465,-0.01803
 051,-0.00553496,0.00632012,0.00507508,-0.01310834,0.27658005,-0.002531
 52,-0.05916489,-0.18753853,-0.03700732,-0.01749791,-0.09741195,-0.0025
 6756,0.00256134,0.01000549,-0.16745284,0.17052389,0.55956408,0.0049875
 0,0.00249488,0.00559685,-0.03519246,0.00245965,0.01554286,-0.21559796,
 -0.03621334,-0.03106849,-0.38627883,0.05548952,0.19277739,0.73341457,0
 .01289145,0.00319533,-0.01280943,-0.00849706,0.00654267,0.00337920,-0.
 03556498,-0.08431978,-0.01693371,0.05875560,-0.08369197,-0.06568649,0.
 00594024,0.26072991,0.02548508,-0.01007057,-0.01786229,-0.00541694,0.0
 0049276,0.00831602,-0.02982828,-0.01676295,-0.09477881,0.19902528,-0.0
 6482608,-0.23388714,-0.14276820,0.21342817,0.59423388,-0.00034390,0.00
 074084,-0.00065433,-0.00035854,-0.00210570,0.00188457,-0.12495074,0.12
 378915,-0.00423027,-0.00144013,-0.00141384,-0.00344343,-0.02265177,0.0
 2614504,0.00185797,0.14124251,-0.00005820,-0.00009894,-0.00024661,0.00
 008483,-0.00065474,0.00050404,0.12132397,-0.22667256,0.00299851,-0.001
 40583,-0.00002383,0.00012245,-0.00522352,0.01063158,-0.00023886,-0.133
 06988,0.24542258,-0.00001031,-0.00024203,-0.00023909,0.00005557,-0.000
 23231,0.00040363,-0.00499471,0.00350674,-0.04696745,-0.00001196,-0.000
 47922,-0.00058845,-0.00246375,0.00557135,-0.00002761,0.00424963,-0.004
 76270,0.04590970,-0.00126469,0.00008087,0.00038184,-0.00007299,0.00009
 504,0.00019660,-0.04966228,-0.01185430,-0.02198859,0.00173604,0.000230
 50,-0.00004396,0.00010454,-0.01565283,-0.03037594,0.00141036,0.0069405
 5,0.01668021,0.05481952,0.00040374,-0.00039967,-0.00010099,-0.00006849
 ,0.00000640,0.00006242,-0.01294579,-0.10746342,-0.11215775,0.00058900,
 -0.00020108,-0.00033977,-0.00086471,-0.00482133,-0.00605277,-0.0034222
 8,-0.01184587,-0.02407591,0.01366416,0.11203198,0.00099949,-0.00001593
 ,-0.00069625,-0.00011623,0.00001934,0.00005081,-0.02407654,-0.11244528
 ,-0.25581025,0.00064184,-0.00024532,-0.00074296,-0.00208693,-0.0021570
 2,-0.00511467,0.00086667,0.00124510,0.00193760,0.02343197,0.12550183,0
 .27845070,-0.00010676,-0.00100545,0.00024353,-0.00099690,0.00264059,-0
 .00061652,-0.07705070,-0.05792606,0.06939866,-0.00156641,-0.00226636,-
 0.00275809,-0.01659171,-0.01824532,0.02541960,0.00665553,0.01047646,-0
 .01395065,0.00018708,0.00266464,-0.00215628,0.08903891,-0.00002279,-0.
 00017958,-0.00009545,-0.00018530,0.00050158,0.00004457,-0.05706537,-0.
 13750614,0.11151310,0.00043825,-0.00056637,-0.00133441,-0.00299296,-0.
 00276761,0.00417669,-0.00998599,-0.01702843,0.02050068,0.00665763,0.01
 051102,-0.01159656,0.06325542,0.14684634,-0.00004923,-0.00005165,-0.00
 039560,-0.00000295,0.00061353,-0.00011433,0.06709382,0.11058220,-0.184
 03377,-0.00100041,-0.00001813,0.00008034,-0.00108831,-0.00587917,0.007
 31150,-0.00042673,-0.00002860,-0.00093824,0.00949224,0.01750633,-0.019
 19601,-0.07497081,-0.12321476,0.19668939,-0.13629101,0.12346046,-0.011
 09720,0.00038824,-0.00057702,-0.00018738,-0.00025925,0.00016881,-0.000
 04652,-0.00184225,0.00058288,0.00379155,0.00078348,0.00015968,-0.00054
 124,-0.00002987,0.00010598,0.00033619,0.00034103,0.00015616,0.00013483
 ,0.00000648,-0.00001892,0.00001745,0.14502559,0.12416916,-0.21859856,0
 .01070309,0.00036626,0.00050758,0.00047885,-0.00003440,-0.00033618,0.0
 0000350,0.00937198,-0.01155481,-0.00153057,-0.00210934,-0.00068577,-0.
 00100532,0.00007967,0.00005724,0.00016268,0.00011383,0.00002749,0.0001
 1026,0.00009951,0.00003990,0.00006836,-0.13766672,0.23766091,-0.009334
 95,0.00914401,-0.04405192,0.00089359,0.00050907,0.00087725,-0.00007345
 ,-0.00091680,0.00015403,0.01986119,-0.02701172,-0.00051132,-0.00189925
 ,-0.00155239,-0.00303266,0.00021078,0.00005887,0.00006254,0.00012168,0
 .00003538,0.00020238,0.00005138,0.00005904,0.00008050,0.00871492,-0.00
 907478,0.05103475,-0.08591654,-0.06479100,0.06804352,0.00025629,0.0002
 1065,-0.00055356,-0.00019515,-0.00020971,0.00014966,-0.00208765,0.0017
 2331,0.00309175,0.00059068,-0.00031323,-0.00014296,0.00001512,0.000031
 88,-0.00000272,0.00034972,0.00009542,0.00016218,-0.00005078,0.00021943
 ,0.00029604,0.00741756,0.01181823,-0.01413524,0.08965149,-0.06394791,-
 0.14183006,0.11048438,0.00054427,0.00045275,0.00017655,-0.00021678,0.0
 0035653,-0.00034628,0.00681377,0.01167997,-0.01292395,-0.00016353,-0.0
 0121510,-0.00182558,-0.00001005,0.00001097,0.00003711,0.00010086,0.000
 10439,0.00010201,0.00012159,0.00003122,0.00003715,-0.01093354,-0.01711
 593,0.01855759,0.06911155,0.15448031,0.06924980,0.11245225,-0.17119500
 ,0.00080812,0.00048272,0.00106404,-0.00022566,0.00051863,-0.00060279,0
 .01357320,0.01621361,-0.02350072,-0.00283914,-0.00183683,-0.00231053,0
 .00010970,0.00006659,0.00010080,0.00010477,0.00016717,0.00011679,0.000
 18394,0.00010825,0.00010946,0.00013603,0.00129102,-0.00153595,-0.07813
 386,-0.11985871,0.18958957,-0.27772614,-0.07058320,-0.07427200,0.00097
 516,-0.00008601,-0.00021184,-0.00121582,0.00051891,0.00123424,0.002710
 21,0.00025342,-0.00080902,-0.00106258,-0.00025475,-0.00028651,0.000060
 49,0.00010183,0.00012720,-0.00227170,0.00116022,0.00304693,0.00007923,
 0.00005655,0.00013391,-0.01575888,-0.00571508,-0.00412582,-0.01017642,
 -0.00192030,-0.00308387,0.30404520,-0.06937378,-0.06857434,-0.02277124
 ,0.00086724,-0.00064677,-0.00298769,0.00012364,-0.00030698,-0.00004823
 ,-0.01431263,-0.00531295,-0.00218253,-0.00040139,0.00001741,0.00071349
 ,0.00008457,0.00009052,0.00014750,0.00082889,0.00081071,-0.00033040,-0
 .00000932,0.00011312,0.00025886,0.02444239,0.00899708,0.00765550,-0.01
 789600,-0.00547948,-0.00674793,0.07637346,0.06956233,-0.07195845,-0.02
 245264,-0.07111169,0.00161170,-0.00273656,-0.00486392,0.00047809,-0.00
 015237,-0.00071620,-0.02867335,-0.00601977,-0.00616298,-0.00056703,0.0
 0067486,0.00114007,0.00002429,0.00021427,0.00036538,0.00241312,-0.0004
 1769,-0.00056546,0.00007781,0.00017019,0.00032404,-0.00128616,-0.00015
 666,-0.00155850,0.02120570,0.00480025,0.00733561,0.07786863,0.02678554
 ,0.07576898,0.00091267,0.00049260,0.00114547,-0.13890613,0.12733748,-0
 .01335052,-0.00033426,-0.00201889,0.00182283,-0.02237548,0.02381619,-0
 .00094207,-0.00204811,-0.00144979,-0.00285064,0.00025478,0.00011003,-0
 .00002854,-0.00007239,-0.00003986,-0.00010100,-0.00076995,-0.00016226,
 -0.00022496,0.00020048,-0.00062875,-0.00071885,0.00003433,-0.00009692,
 -0.00004098,0.00019513,-0.00034754,0.00038217,0.15613484,-0.00013155,0
 .00046333,0.00034099,0.12535469,-0.21326379,0.01353625,-0.00008669,-0.
 00069728,0.00062827,-0.00565375,0.01037790,-0.00167819,-0.00119423,-0.
 00006079,-0.00008759,0.00011669,0.00001541,-0.00000910,0.00006353,0.00
 005269,0.00000172,-0.00024125,-0.00002893,0.00003435,0.00011396,0.0000
 2052,0.00015637,0.00008160,-0.00017737,0.00001558,-0.00000415,0.000223
 79,0.00014762,-0.13750413,0.23084080,0.00001969,0.00040486,0.00038636,
 -0.01420763,0.01384863,-0.04984720,-0.00007139,-0.00007782,0.00058696,
 -0.00408693,0.00788105,-0.00092499,-0.00008253,-0.00051684,-0.00053102
 ,-0.00004073,-0.00000146,-0.00009056,0.00002492,0.00004141,-0.00003536
 ,-0.00016681,-0.00002169,-0.00005843,-0.00030212,-0.00040901,-0.000155
 58,-0.00009537,0.00012325,-0.00003737,0.00022317,-0.00008200,0.0000978
 0,0.01490007,-0.01639477,0.04861336,-0.00537295,-0.00127904,-0.0008089
 7,-0.04797778,0.00718557,0.01381700,0.00012972,0.00020535,0.00031933,0
 .00228913,-0.01369723,-0.02730504,0.00100494,-0.00063957,-0.00163548,-
 0.00000625,-0.00001778,-0.00003774,0.00020396,0.00002147,-0.00001424,0
 .00000523,-0.00001938,-0.00003360,0.00002214,-0.00013103,0.00017308,-0
 .00005866,0.00020956,0.00012351,-0.00003085,-0.00086739,-0.00148764,-0
 .00112887,0.00703983,0.01767448,0.05288248,-0.00231211,0.00039511,-0.0
 0024958,0.00554940,-0.10414426,-0.10942386,-0.00009670,-0.00000166,0.0
 0030782,0.00121492,-0.00581596,-0.00781749,0.00136841,-0.00020116,0.00
 032403,0.00000497,-0.00000523,-0.00000582,0.00012082,0.00003816,0.0000
 5270,-0.00007465,-0.00002071,-0.00002171,-0.00011536,0.00045671,0.0004
 1780,0.00017804,0.00011384,-0.00033583,-0.00001147,0.00021238,-0.00077
 809,0.00014182,-0.01065637,-0.02265219,-0.00528603,0.10837293,-0.00278
 519,-0.00052173,0.00057966,0.01068706,-0.10985490,-0.26067143,-0.00025
 848,0.00022825,0.00035547,0.00122140,-0.00388902,-0.00965802,0.0022057
 2,0.00085301,0.00049172,-0.00008701,-0.00002622,-0.00001992,0.00017581
 ,0.00007887,0.00009854,-0.00004653,-0.00000988,-0.00001592,0.00020591,
 -0.00002230,0.00008703,0.00006036,0.00010009,0.00051071,0.00014970,-0.
 00055261,-0.00047585,0.00019476,0.00198286,0.00386620,-0.01202235,0.12
 141579,0.28106244,0.00081669,0.00081464,0.00099362,-0.08657045,-0.0683
 1763,0.07123674,-0.00097742,0.00256549,-0.00060083,-0.01646715,-0.0191
 2683,0.02161118,-0.00215443,-0.00193559,-0.00242694,-0.00076886,-0.000
 24344,-0.00016156,-0.00005414,-0.00007095,-0.00007341,0.00029426,-0.00
 001722,0.00004709,0.00003211,0.00006670,-0.00014327,0.00019780,-0.0001
 6280,-0.00085491,0.00005544,0.00050528,-0.00001925,0.00818492,0.012182
 75,-0.01380646,-0.00145559,-0.00040084,0.00059443,0.09885482,0.0002711
 0,0.00026162,0.00032667,-0.06783209,-0.14930245,0.10856411,-0.00016072
 ,0.00046376,0.00021865,-0.00360012,-0.00424492,0.00520442,0.00010869,-
 0.00038818,-0.00114904,-0.00015706,-0.00010797,-0.00007657,-0.00002431
 ,-0.00004562,-0.00002924,-0.00003008,-0.00007682,-0.00002698,-0.000068
 32,-0.00015935,0.00012791,-0.00031722,-0.00009059,-0.00056630,0.000152
 89,0.00025639,-0.00019177,-0.01071011,-0.01732452,0.01804092,0.0070159
 7,0.01068502,-0.01001566,0.07534641,0.15993713,-0.00011435,-0.00004482
 ,0.00068404,0.06922967,0.10785730,-0.16614420,-0.00022553,0.00071556,0
 .00006906,-0.00191688,-0.00802803,0.00778949,-0.00079555,-0.00011391,-
 0.00009731,-0.00020556,-0.00001858,0.00001953,0.00008767,-0.00002940,0
 .00004471,0.00004742,-0.00003625,-0.00003782,-0.00000568,0.00003170,-0
 .00005316,-0.00014627,0.00015406,-0.00004179,0.00012255,0.00003548,0.0
 0020490,0.00047846,0.00121090,-0.00228824,0.01049847,0.01839050,-0.017
 14847,-0.07693065,-0.12046789,0.17679703,-0.00333633,-0.00101378,0.002
 06870,0.00023396,0.00230155,0.00211215,-0.00362690,-0.01463668,-0.0263
 6185,0.00335374,0.01203621,0.02358898,-0.05930786,-0.02133889,-0.03551
 480,0.00091127,0.00084312,0.00021313,-0.00575406,-0.00134274,-0.000659
 28,0.00086646,-0.00015709,0.00071644,-0.00003583,0.00019999,0.00040421
 ,-0.00002780,0.00055023,0.00088934,0.00012153,-0.00001741,-0.00006962,
 -0.00028196,-0.00013729,0.00001765,-0.00050664,-0.00028122,-0.00029559
 ,0.00001201,0.00000498,-0.00012377,0.06737843,-0.00047845,0.00957105,-
 0.00428678,0.00004925,-0.00632581,0.00407171,-0.00086172,-0.00096809,-
 0.00657786,-0.00169678,0.00094574,-0.00825588,-0.01869839,-0.10296521,
 -0.11711639,-0.00079611,0.00020929,-0.00004242,-0.00136525,0.00119415,
 -0.00021321,0.00054027,0.00013138,0.00014025,0.00018956,0.00068316,0.0
 0183414,0.00005705,-0.00132144,-0.00197022,-0.00004231,0.00003679,0.00
 011282,0.00106014,0.00021460,-0.00018432,0.00025970,0.00057120,0.00023
 345,-0.00120598,0.00013649,0.00034340,0.02298902,0.09788669,0.00309276
 ,-0.00414575,0.00313241,-0.00219641,0.00347836,-0.00122847,-0.00001086
 ,-0.00294898,-0.00304929,-0.00268173,-0.01187370,-0.01651233,-0.030463
 65,-0.11642078,-0.25385115,-0.00011554,0.00011320,0.00007215,-0.000702
 33,-0.00021914,0.00125944,-0.00075665,-0.00026350,0.00019488,0.0001294
 2,-0.00065082,-0.00159938,0.00020076,0.00038207,0.00039719,-0.00011726
 ,0.00010626,0.00021781,-0.00066621,0.00011474,0.00041807,0.00073918,0.
 00037595,0.00093785,0.00053422,0.00004077,0.00020221,0.03301431,0.1319
 1132,0.26940863\\0.00000415,0.00000103,0.00000087,-0.00000185,0.000002
 22,0.00000474,-0.00000105,-0.00000288,-0.00000523,-0.00000016,0.000000
 58,0.00000115,-0.00000231,-0.00000111,-0.00000151,-0.00000221,-0.00000
 370,-0.00000649,0.00000199,-0.00000272,-0.00000573,-0.00000221,-0.0000
 0370,-0.00000650,0.00000523,0.00000186,0.00000219,0.00000523,0.0000018
 6,0.00000218,0.00000539,-0.00000016,-0.00000172,-0.00000093,0.00000306
 ,0.00000611,-0.00000496,0.00000182,0.00000479,-0.00000093,0.00000307,0
 .00000611,-0.00000538,-0.00000125,-0.00000097\\\@


 The chemist is a guest at the physicist's table and
 frequently dines well.
                   -- Richard Bersohn
 Job cpu time:  0 days  1 hours 38 minutes 26.0 seconds.
 File lengths (MBytes):  RWF=   2352 Int=      0 D2E=      0 Chk=     32 Scr=     32
 Normal termination of Gaussian 09 at Wed Aug 16 14:22:50 2017.
