 Entering Gaussian System, Link 0=g09
 Initial command:
 /shared/apps/gaussian/G09_LINUX_LINDA/g09/l1.exe /home/harms.n/Code/AutoTST/discovery_test/test/Gau-5661.inp -scrdir=/home/harms.n/Code/AutoTST/discovery_test/test/
 Entering Link 1 = /shared/apps/gaussian/G09_LINUX_LINDA/g09/l1.exe PID=      5662.
  
 Copyright (c) 1988,1990,1992,1993,1995,1998,2003,2009,2010,
            Gaussian, Inc.  All Rights Reserved.
  
 This is part of the Gaussian(R) 09 program.  It is based on
 the Gaussian(R) 03 system (copyright 2003, Gaussian, Inc.),
 the Gaussian(R) 98 system (copyright 1998, Gaussian, Inc.),
 the Gaussian(R) 94 system (copyright 1995, Gaussian, Inc.),
 the Gaussian 92(TM) system (copyright 1992, Gaussian, Inc.),
 the Gaussian 90(TM) system (copyright 1990, Gaussian, Inc.),
 the Gaussian 88(TM) system (copyright 1988, Gaussian, Inc.),
 the Gaussian 86(TM) system (copyright 1986, Carnegie Mellon
 University), and the Gaussian 82(TM) system (copyright 1983,
 Carnegie Mellon University). Gaussian is a federally registered
 trademark of Gaussian, Inc.
  
 This software contains proprietary and confidential information,
 including trade secrets, belonging to Gaussian, Inc.
  
 This software is provided under written license and may be
 used, copied, transmitted, or stored only in accord with that
 written license.
  
 The following legend is applicable only to US Government
 contracts under FAR:
  
                    RESTRICTED RIGHTS LEGEND
  
 Use, reproduction and disclosure by the US Government is
 subject to restrictions as set forth in subparagraphs (a)
 and (c) of the Commercial Computer Software - Restricted
 Rights clause in FAR 52.227-19.
  
 Gaussian, Inc.
 340 Quinnipiac St., Bldg. 40, Wallingford CT 06492
  
  
 ---------------------------------------------------------------
 Warning -- This program may not be used in any manner that
 competes with the business of Gaussian, Inc. or will provide
 assistance to any competitor of Gaussian, Inc.  The licensee
 of this program is prohibited from giving any competitor of
 Gaussian, Inc. access to this program.  By using this program,
 the user acknowledges that Gaussian, Inc. is engaged in the
 business of creating and licensing software in the field of
 computational chemistry and represents and warrants to the
 licensee that it is not a competitor of Gaussian, Inc. and that
 it will not use this program in any manner prohibited above.
 ---------------------------------------------------------------
  

 Cite this work as:
 Gaussian 09, Revision B.01,
 M. J. Frisch, G. W. Trucks, H. B. Schlegel, G. E. Scuseria, 
 M. A. Robb, J. R. Cheeseman, G. Scalmani, V. Barone, B. Mennucci, 
 G. A. Petersson, H. Nakatsuji, M. Caricato, X. Li, H. P. Hratchian, 
 A. F. Izmaylov, J. Bloino, G. Zheng, J. L. Sonnenberg, M. Hada, 
 M. Ehara, K. Toyota, R. Fukuda, J. Hasegawa, M. Ishida, T. Nakajima, 
 Y. Honda, O. Kitao, H. Nakai, T. Vreven, J. A. Montgomery, Jr., 
 J. E. Peralta, F. Ogliaro, M. Bearpark, J. J. Heyd, E. Brothers, 
 K. N. Kudin, V. N. Staroverov, T. Keith, R. Kobayashi, J. Normand, 
 K. Raghavachari, A. Rendell, J. C. Burant, S. S. Iyengar, J. Tomasi, 
 M. Cossi, N. Rega, J. M. Millam, M. Klene, J. E. Knox, J. B. Cross, 
 V. Bakken, C. Adamo, J. Jaramillo, R. Gomperts, R. E. Stratmann, 
 O. Yazyev, A. J. Austin, R. Cammi, C. Pomelli, J. W. Ochterski, 
 R. L. Martin, K. Morokuma, V. G. Zakrzewski, G. A. Voth, 
 P. Salvador, J. J. Dannenberg, S. Dapprich, A. D. Daniels, 
 O. Farkas, J. B. Foresman, J. V. Ortiz, J. Cioslowski, 
 and D. J. Fox, Gaussian, Inc., Wallingford CT, 2010.
 
 ******************************************
 Gaussian 09:  EM64L-G09RevB.01 12-Aug-2010
                12-Jun-2018 
 ******************************************
 %nprocshared=20
 Will use up to   20 processors via shared memory.
 %mem=5GB
 ---------------------------------------------------------------
 #p m062x/6-311+g(2df,2p) opt=(verytight,gdiis) freq IOP(2/16=3)
 ---------------------------------------------------------------

 Warning!  Use of Opt=GDIIS is deprecated since it is seldom a good choice.

 1/7=1,14=-1,18=20,19=11,26=3,38=1/1,3;
 2/9=110,12=2,16=3,17=6,18=5,40=1/2;
 3/5=4,6=6,7=214,11=2,16=1,25=1,30=1,71=1,74=-55/1,2,3;
 4//1;
 5/5=2,38=5/2;
 6/7=2,8=2,9=2,10=2,28=1/1;
 7//1,2,3,16;
 1/7=1,14=-1,18=20,19=11/3(2);
 2/9=110,16=3/2;
 99//99;
 2/9=110,16=3/2;
 3/5=4,6=6,7=214,11=2,16=1,25=1,30=1,71=1,74=-55/1,2,3;
 4/5=5,16=3/1;
 5/5=2,38=5/2;
 7//1,2,3,16;
 1/7=1,14=-1,18=20,19=11/3(-5);
 2/9=110,16=3/2;
 6/7=2,8=2,9=2,10=2,19=2,28=1/1;
 99/9=1/99;
 Leave Link    1 at Tue Jun 12 13:22:55 2018, MaxMem=  671088640 cpu:       1.2
 (Enter /shared/apps/gaussian/G09_LINUX_LINDA/g09/l101.exe)
 ------------------------------
 Gaussian input prepared by ASE
 ------------------------------
 Symbolic Z-matrix:
 Charge =  0 Multiplicity = 2
 C                     2.1797    0.3125   -0.5781 
 C                     0.9307   -0.2492    0.0127 
 C                    -0.2498   -0.0146   -0.5772 
 C                    -0.8526    1.3181   -0.244 
 C                    -1.2107   -1.1662   -0.5255 
 H                     2.7824   -0.4991   -1.0572 
 H                     2.8065    0.6546    0.2846 
 H                     1.0056   -0.8579    0.9188 
 H                    -1.0401    1.2714    0.8591 
 H                    -0.1855    2.1582   -0.4762 
 H                    -1.8441    1.4381   -0.7085 
 H                    -0.6735   -2.143    -0.492 
 H                    -1.8859   -1.1887   -1.3986 
 H                    -1.7627   -1.0343    0.4402 
 
 NAtoms=     14 NQM=     14 NQMF=      0 NMic=      0 NMicF=      0 NTot=     14.
                    Isotopes and Nuclear Properties:
 (Nuclear quadrupole moments (NQMom) in fm**2, nuclear magnetic moments (NMagM)
  in nuclear magnetons)

  Atom         1           2           3           4           5           6           7           8           9          10
 IAtWgt=          12          12          12          12          12           1           1           1           1           1
 AtmWgt=  12.0000000  12.0000000  12.0000000  12.0000000  12.0000000   1.0078250   1.0078250   1.0078250   1.0078250   1.0078250
 NucSpn=           0           0           0           0           0           1           1           1           1           1
 AtZEff=   0.0000000   0.0000000   0.0000000   0.0000000   0.0000000   0.0000000   0.0000000   0.0000000   0.0000000   0.0000000
 NQMom=    0.0000000   0.0000000   0.0000000   0.0000000   0.0000000   0.0000000   0.0000000   0.0000000   0.0000000   0.0000000
 NMagM=    0.0000000   0.0000000   0.0000000   0.0000000   0.0000000   2.7928460   2.7928460   2.7928460   2.7928460   2.7928460

  Atom        11          12          13          14
 IAtWgt=           1           1           1           1
 AtmWgt=   1.0078250   1.0078250   1.0078250   1.0078250
 NucSpn=           1           1           1           1
 AtZEff=   0.0000000   0.0000000   0.0000000   0.0000000
 NQMom=    0.0000000   0.0000000   0.0000000   0.0000000
 NMagM=    2.7928460   2.7928460   2.7928460   2.7928460
 Leave Link  101 at Tue Jun 12 13:22:56 2018, MaxMem=  671088640 cpu:       1.2
 (Enter /shared/apps/gaussian/G09_LINUX_LINDA/g09/l103.exe)

 GradGradGradGradGradGradGradGradGradGradGradGradGradGradGradGradGradGrad
 Berny optimization.
 Initialization pass.
                           ----------------------------
                           !    Initial Parameters    !
                           ! (Angstroms and Degrees)  !
 --------------------------                            --------------------------
 ! Name  Definition              Value          Derivative Info.                !
 --------------------------------------------------------------------------------
 ! R1    R(1,2)                  1.4915         estimate D2E/DX2                !
 ! R2    R(1,6)                  1.1187         estimate D2E/DX2                !
 ! R3    R(1,7)                  1.1199         estimate D2E/DX2                !
 ! R4    R(2,3)                  1.3404         estimate D2E/DX2                !
 ! R5    R(2,8)                  1.0941         estimate D2E/DX2                !
 ! R6    R(3,4)                  1.5002         estimate D2E/DX2                !
 ! R7    R(3,5)                  1.5007         estimate D2E/DX2                !
 ! R8    R(4,9)                  1.1199         estimate D2E/DX2                !
 ! R9    R(4,10)                 1.0976         estimate D2E/DX2                !
 ! R10   R(4,11)                 1.1015         estimate D2E/DX2                !
 ! R11   R(5,12)                 1.1153         estimate D2E/DX2                !
 ! R12   R(5,13)                 1.1039         estimate D2E/DX2                !
 ! R13   R(5,14)                 1.1201         estimate D2E/DX2                !
 ! A1    A(2,1,6)              110.3395         estimate D2E/DX2                !
 ! A2    A(2,1,7)              106.1766         estimate D2E/DX2                !
 ! A3    A(6,1,7)              104.4771         estimate D2E/DX2                !
 ! A4    A(1,2,3)              119.8207         estimate D2E/DX2                !
 ! A5    A(1,2,8)              118.7001         estimate D2E/DX2                !
 ! A6    A(3,2,8)              121.4751         estimate D2E/DX2                !
 ! A7    A(2,3,4)              114.3075         estimate D2E/DX2                !
 ! A8    A(2,3,5)              114.4846         estimate D2E/DX2                !
 ! A9    A(4,3,5)              114.6306         estimate D2E/DX2                !
 ! A10   A(3,4,9)              104.4189         estimate D2E/DX2                !
 ! A11   A(3,4,10)             112.8769         estimate D2E/DX2                !
 ! A12   A(3,4,11)             111.3968         estimate D2E/DX2                !
 ! A13   A(9,4,10)             110.0023         estimate D2E/DX2                !
 ! A14   A(9,4,11)             105.6177         estimate D2E/DX2                !
 ! A15   A(10,4,11)            111.9936         estimate D2E/DX2                !
 ! A16   A(3,5,12)             111.3895         estimate D2E/DX2                !
 ! A17   A(3,5,13)             112.3342         estimate D2E/DX2                !
 ! A18   A(3,5,14)             104.7663         estimate D2E/DX2                !
 ! A19   A(12,5,13)            107.4881         estimate D2E/DX2                !
 ! A20   A(12,5,14)            108.3371         estimate D2E/DX2                !
 ! A21   A(13,5,14)            112.51           estimate D2E/DX2                !
 ! D1    D(6,1,2,3)           -107.1696         estimate D2E/DX2                !
 ! D2    D(6,1,2,8)             72.1033         estimate D2E/DX2                !
 ! D3    D(7,1,2,3)            140.178          estimate D2E/DX2                !
 ! D4    D(7,1,2,8)            -40.5491         estimate D2E/DX2                !
 ! D5    D(1,2,3,4)            -81.6523         estimate D2E/DX2                !
 ! D6    D(1,2,3,5)            143.2599         estimate D2E/DX2                !
 ! D7    D(8,2,3,4)             99.0955         estimate D2E/DX2                !
 ! D8    D(8,2,3,5)            -35.9923         estimate D2E/DX2                !
 ! D9    D(2,3,4,9)            -63.3541         estimate D2E/DX2                !
 ! D10   D(2,3,4,10)            56.1061         estimate D2E/DX2                !
 ! D11   D(2,3,4,11)          -176.8881         estimate D2E/DX2                !
 ! D12   D(5,3,4,9)             71.6671         estimate D2E/DX2                !
 ! D13   D(5,3,4,10)          -168.8727         estimate D2E/DX2                !
 ! D14   D(5,3,4,11)           -41.8669         estimate D2E/DX2                !
 ! D15   D(2,3,5,12)           -28.896          estimate D2E/DX2                !
 ! D16   D(2,3,5,13)          -149.5482         estimate D2E/DX2                !
 ! D17   D(2,3,5,14)            88.0186         estimate D2E/DX2                !
 ! D18   D(4,3,5,12)          -163.8368         estimate D2E/DX2                !
 ! D19   D(4,3,5,13)            75.5109         estimate D2E/DX2                !
 ! D20   D(4,3,5,14)           -46.9223         estimate D2E/DX2                !
 --------------------------------------------------------------------------------
 Trust Radius=3.00D-01 FncErr=1.00D-07 GrdErr=1.00D-06
 Number of steps in this run=     64 maximum allowed number of steps=    100.
 GradGradGradGradGradGradGradGradGradGradGradGradGradGradGradGradGradGrad

 Leave Link  103 at Tue Jun 12 13:22:56 2018, MaxMem=  671088640 cpu:       0.2
 (Enter /shared/apps/gaussian/G09_LINUX_LINDA/g09/l202.exe)
                          Input orientation:                          
 ---------------------------------------------------------------------
 Center     Atomic      Atomic             Coordinates (Angstroms)
 Number     Number       Type             X           Y           Z
 ---------------------------------------------------------------------
      1          6           0        2.179700    0.312500   -0.578100
      2          6           0        0.930700   -0.249200    0.012700
      3          6           0       -0.249800   -0.014600   -0.577200
      4          6           0       -0.852600    1.318100   -0.244000
      5          6           0       -1.210700   -1.166200   -0.525500
      6          1           0        2.782400   -0.499100   -1.057200
      7          1           0        2.806500    0.654600    0.284600
      8          1           0        1.005600   -0.857900    0.918800
      9          1           0       -1.040100    1.271400    0.859100
     10          1           0       -0.185500    2.158200   -0.476200
     11          1           0       -1.844100    1.438100   -0.708500
     12          1           0       -0.673500   -2.143000   -0.492000
     13          1           0       -1.885900   -1.188700   -1.398600
     14          1           0       -1.762700   -1.034300    0.440200
 ---------------------------------------------------------------------
                    Distance matrix (angstroms):
                    1          2          3          4          5
     1  C    0.000000
     2  C    1.491493   0.000000
     3  C    2.451421   1.340373   0.000000
     4  C    3.212117   2.387987   1.500160   0.000000
     5  C    3.699207   2.390845   1.500728   2.525713   0.000000
     6  H    1.118695   2.153121   3.107954   4.144482   4.083206
     7  H    1.119894   2.099859   3.245227   3.756150   4.484358
     8  H    2.233620   1.094140   2.127252   3.088687   2.663276
     9  H    3.654059   2.629196   2.083585   1.119896   2.808579
    10  H    3.001860   2.698240   2.176096   1.097592   3.479239
    11  H    4.180305   3.326654   2.160872   1.101468   2.686459
    12  H    3.765321   2.532718   2.171835   3.474593   1.115278
    13  H    4.410887   3.287501   2.174864   2.947008   1.103950
    14  H    4.288744   2.837876   2.088961   2.613465   1.120124
                    6          7          8          9         10
     6  H    0.000000
     7  H    1.769755   0.000000
     8  H    2.681479   2.435797   0.000000
     9  H    4.628000   3.937870   2.953366   0.000000
    10  H    4.025821   3.433904   3.530100   1.816530   0.000000
    11  H    5.027806   4.819564   4.005061   1.769626   1.823036
    12  H    3.868476   4.532116   2.541892   3.690257   4.328824
    13  H    4.731292   5.315029   3.720288   3.444514   3.865737
    14  H    4.815245   4.873826   2.814900   2.452321   3.676874
                   11         12         13         14
    11  H    0.000000
    12  H    3.773785   0.000000
    13  H    2.716259   1.789560   0.000000
    14  H    2.727435   1.812338   1.849379   0.000000
 Stoichiometry    C5H9(2)
 Framework group  C1[X(C5H9)]
 Deg. of freedom    36
 Full point group                 C1      NOp   1
 Largest Abelian subgroup         C1      NOp   1
 Largest concise Abelian subgroup C1      NOp   1
                         Standard orientation:                         
 ---------------------------------------------------------------------
 Center     Atomic      Atomic             Coordinates (Angstroms)
 Number     Number       Type             X           Y           Z
 ---------------------------------------------------------------------
      1          6           0        2.091131   -0.004083   -0.289763
      2          6           0        0.793884   -0.353929    0.357779
      3          6           0       -0.359620   -0.011807   -0.232967
      4          6           0       -0.778373    1.408718    0.006265
      5          6           0       -1.459229   -1.021891   -0.082052
      6          1           0        2.573516   -0.920017   -0.713848
      7          1           0        2.775979    0.315973    0.536500
      8          1           0        0.810259   -0.899150    1.306256
      9          1           0       -0.945445    1.467738    1.112054
     10          1           0       -0.014172    2.135731   -0.297306
     11          1           0       -1.756410    1.622156   -0.453214
     12          1           0       -1.051490   -2.055103    0.018281
     13          1           0       -2.151195   -1.020396   -0.942218
     14          1           0       -1.967805   -0.748981    0.877921
 ---------------------------------------------------------------------
 Rotational constants (GHZ):      7.9109767      3.8242190      2.8379754
 Leave Link  202 at Tue Jun 12 13:22:56 2018, MaxMem=  671088640 cpu:       0.8
 (Enter /shared/apps/gaussian/G09_LINUX_LINDA/g09/l301.exe)
 Standard basis: 6-311+G(2df,2p) (5D, 7F)
 Ernie: Thresh=  0.10000D-02 Tol=  0.10000D-05 Strict=F.
 There are   251 symmetry adapted basis functions of A   symmetry.
 Integral buffers will be    131072 words long.
 Raffenetti 2 integral format.
 Two-electron integral symmetry is turned on.
   251 basis functions,   359 primitive gaussians,   276 cartesian basis functions
    20 alpha electrons       19 beta electrons
       nuclear repulsion energy       167.0163895329 Hartrees.
 IExCor= 4336 DFT=T Ex+Corr=M062X ExCW=0 ScaHFX=  0.540000
 ScaDFX=  1.000000  1.000000  1.000000  1.000000 ScalE2=  1.000000  1.000000
 IRadAn=      0 IRanWt=     -1 IRanGd=            0 ICorTp=0
 NAtoms=   14 NActive=   14 NUniq=   14 SFac= 1.00D+00 NAtFMM=   50 NAOKFM=F Big=F
 Leave Link  301 at Tue Jun 12 13:22:57 2018, MaxMem=  671088640 cpu:       1.0
 (Enter /shared/apps/gaussian/G09_LINUX_LINDA/g09/l302.exe)
 NPDir=0 NMtPBC=     1 NCelOv=     1 NCel=       1 NClECP=     1 NCelD=      1
         NCelK=      1 NCelE2=     1 NClLst=     1 CellRange=     0.0.
 One-electron integrals computed using PRISM.
 NBasis=   251 RedAO= T  NBF=   251
 NBsUse=   251 1.00D-06 NBFU=   251
 Precomputing XC quadrature grid using
 IXCGrd= 2 IRadAn=           0 IRanWt=          -1 IRanGd=           0 AccXCQ= 0.00D+00.
 NRdTot=     901 NPtTot=      113742 NUsed=      120244 NTot=      120276
 NSgBfM=   276   276   276   276   276 NAtAll=    14    14.
 Leave Link  302 at Tue Jun 12 13:22:59 2018, MaxMem=  671088640 cpu:      16.9
 (Enter /shared/apps/gaussian/G09_LINUX_LINDA/g09/l303.exe)
 DipDrv:  MaxL=1.
 Leave Link  303 at Tue Jun 12 13:22:59 2018, MaxMem=  671088640 cpu:       3.3
 (Enter /shared/apps/gaussian/G09_LINUX_LINDA/g09/l401.exe)
 Harris functional with IExCor= 1009 diagonalized for initial guess.
 ExpMin= 4.38D-02 ExpMax= 4.56D+03 ExpMxC= 6.82D+02 IAcc=2 IRadAn=         0 AccDes= 0.00D+00
 HarFok:  IExCor= 1009 AccDes= 0.00D+00 IRadAn=         0 IDoV= 1
 ScaDFX=  1.000000  1.000000  1.000000  1.000000
 FoFCou: FMM=F IPFlag=           0 FMFlag=      100000 FMFlg1=           0
         NFxFlg=           0 DoJE=T BraDBF=F KetDBF=T FulRan=T
         Omega=  0.000000  0.000000  1.000000  0.000000  0.000000 ICntrl=     500 IOpCl=  0
         NMat0=    1 NMatS0=    1 NMatT0=    0 NMatD0=    1 NMtDS0=    0 NMtDT0=    0
         I1Cent=           4 NGrid=           0.
 Petite list used in FoFCou.
 Harris En= -195.673759578890    
 Initial guess orbital symmetries:
 Alpha Orbitals:
       Occupied  (A) (A) (A) (A) (A) (A) (A) (A) (A) (A) (A) (A)
                 (A) (A) (A) (A) (A) (A) (A) (A)
       Virtual   (A) (A) (A) (A) (A) (A) (A) (A) (A) (A) (A) (A)
                 (A) (A) (A) (A) (A) (A) (A) (A) (A) (A) (A) (A)
                 (A) (A) (A) (A) (A) (A) (A) (A) (A) (A) (A) (A)
                 (A) (A) (A) (A) (A) (A) (A) (A) (A) (A) (A) (A)
                 (A) (A) (A) (A) (A) (A) (A) (A) (A) (A) (A) (A)
                 (A) (A) (A) (A) (A) (A) (A) (A) (A) (A) (A) (A)
                 (A) (A) (A) (A) (A) (A) (A) (A) (A) (A) (A) (A)
                 (A) (A) (A) (A) (A) (A) (A) (A) (A) (A) (A) (A)
                 (A) (A) (A) (A) (A) (A) (A) (A) (A) (A) (A) (A)
                 (A) (A) (A) (A) (A) (A) (A) (A) (A) (A) (A) (A)
                 (A) (A) (A) (A) (A) (A) (A) (A) (A) (A) (A) (A)
                 (A) (A) (A) (A) (A) (A) (A) (A) (A) (A) (A) (A)
                 (A) (A) (A) (A) (A) (A) (A) (A) (A) (A) (A) (A)
                 (A) (A) (A) (A) (A) (A) (A) (A) (A) (A) (A) (A)
                 (A) (A) (A) (A) (A) (A) (A) (A) (A) (A) (A) (A)
                 (A) (A) (A) (A) (A) (A) (A) (A) (A) (A) (A) (A)
                 (A) (A) (A) (A) (A) (A) (A) (A) (A) (A) (A) (A)
                 (A) (A) (A) (A) (A) (A) (A) (A) (A) (A) (A) (A)
                 (A) (A) (A) (A) (A) (A) (A) (A) (A) (A) (A) (A)
                 (A) (A) (A)
 Beta  Orbitals:
       Occupied  (A) (A) (A) (A) (A) (A) (A) (A) (A) (A) (A) (A)
                 (A) (A) (A) (A) (A) (A) (A)
       Virtual   (A) (A) (A) (A) (A) (A) (A) (A) (A) (A) (A) (A)
                 (A) (A) (A) (A) (A) (A) (A) (A) (A) (A) (A) (A)
                 (A) (A) (A) (A) (A) (A) (A) (A) (A) (A) (A) (A)
                 (A) (A) (A) (A) (A) (A) (A) (A) (A) (A) (A) (A)
                 (A) (A) (A) (A) (A) (A) (A) (A) (A) (A) (A) (A)
                 (A) (A) (A) (A) (A) (A) (A) (A) (A) (A) (A) (A)
                 (A) (A) (A) (A) (A) (A) (A) (A) (A) (A) (A) (A)
                 (A) (A) (A) (A) (A) (A) (A) (A) (A) (A) (A) (A)
                 (A) (A) (A) (A) (A) (A) (A) (A) (A) (A) (A) (A)
                 (A) (A) (A) (A) (A) (A) (A) (A) (A) (A) (A) (A)
                 (A) (A) (A) (A) (A) (A) (A) (A) (A) (A) (A) (A)
                 (A) (A) (A) (A) (A) (A) (A) (A) (A) (A) (A) (A)
                 (A) (A) (A) (A) (A) (A) (A) (A) (A) (A) (A) (A)
                 (A) (A) (A) (A) (A) (A) (A) (A) (A) (A) (A) (A)
                 (A) (A) (A) (A) (A) (A) (A) (A) (A) (A) (A) (A)
                 (A) (A) (A) (A) (A) (A) (A) (A) (A) (A) (A) (A)
                 (A) (A) (A) (A) (A) (A) (A) (A) (A) (A) (A) (A)
                 (A) (A) (A) (A) (A) (A) (A) (A) (A) (A) (A) (A)
                 (A) (A) (A) (A) (A) (A) (A) (A) (A) (A) (A) (A)
                 (A) (A) (A) (A)
 The electronic state of the initial guess is 2-A.
 Initial guess <Sx>= 0.0000 <Sy>= 0.0000 <Sz>= 0.5000 <S**2>= 0.7500 S= 0.5000
 Leave Link  401 at Tue Jun 12 13:23:04 2018, MaxMem=  671088640 cpu:      44.2
 (Enter /shared/apps/gaussian/G09_LINUX_LINDA/g09/l502.exe)
 UHF open shell SCF:
 Requested convergence on RMS density matrix=1.00D-08 within 128 cycles.
 Requested convergence on MAX density matrix=1.00D-06.
 Requested convergence on             energy=1.00D-06.
 No special actions if energy rises.
 Using DIIS extrapolation, IDIIS=  1040.
 Integral symmetry usage will be decided dynamically.
       120105 words used for storage of precomputed grid.
 IEnd=      374319 IEndB=      374319 NGot=   671088640 MDV=   670807414
 LenX=   670807414 LenY=   670730797
 Fock matrices will be formed incrementally for  20 cycles.

 Cycle   1  Pass 1  IDiag  1:
 FoFCou: FMM=F IPFlag=           0 FMFlag=      100000 FMFlg1=           0
         NFxFlg=           0 DoJE=F BraDBF=F KetDBF=F FulRan=T
         Omega=  0.000000  0.000000  1.000000  0.000000  0.000000 ICntrl=       0 IOpCl=  1
         NMat0=    1 NMatS0=    1 NMatT0=    0 NMatD0=    1 NMtDS0=    0 NMtDT0=    0
         I1Cent=           0 NGrid=           0.
 Symmetry not used in FoFCou.
 E= -195.521322059915    
 DIIS: error= 2.42D-02 at cycle   1 NSaved=   1.
 NSaved= 1 IEnMin= 1 EnMin= -195.521322059915     IErMin= 1 ErrMin= 2.42D-02
 ErrMax= 2.42D-02 EMaxC= 1.00D-01 BMatC= 7.89D-01 BMatP= 7.89D-01
 IDIUse=3 WtCom= 7.58D-01 WtEn= 2.42D-01
 Coeff-Com:  0.100D+01
 Coeff-En:   0.100D+01
 Coeff:      0.100D+01
 Gap=     0.223 Goal=   None    Shift=    0.000
 Gap=     0.161 Goal=   None    Shift=    0.000
 GapD=    0.161 DampG=1.000 DampE=0.500 DampFc=0.5000 IDamp=-1.
 Damping current iteration by 5.00D-01
 RMSDP=5.78D-03 MaxDP=3.79D-01              OVMax= 2.33D-01

 Cycle   2  Pass 1  IDiag  1:
 RMSU=  2.12D-03    CP:  9.88D-01
 E= -195.620144707914     Delta-E=       -0.098822647999 Rises=F Damp=T
 DIIS: error= 6.06D-03 at cycle   2 NSaved=   2.
 NSaved= 2 IEnMin= 2 EnMin= -195.620144707914     IErMin= 2 ErrMin= 6.06D-03
 ErrMax= 6.06D-03 EMaxC= 1.00D-01 BMatC= 4.67D-02 BMatP= 7.89D-01
 IDIUse=3 WtCom= 9.39D-01 WtEn= 6.06D-02
 Coeff-Com: -0.122D+00 0.112D+01
 Coeff-En:   0.000D+00 0.100D+01
 Coeff:     -0.114D+00 0.111D+01
 Gap=     0.267 Goal=   None    Shift=    0.000
 Gap=     0.184 Goal=   None    Shift=    0.000
 RMSDP=2.60D-03 MaxDP=2.55D-01 DE=-9.88D-02 OVMax= 1.03D-01

 Cycle   3  Pass 1  IDiag  1:
 RMSU=  1.97D-03    CP:  9.51D-01  6.90D-01
 E= -195.714134860303     Delta-E=       -0.093990152389 Rises=F Damp=F
 DIIS: error= 2.24D-03 at cycle   3 NSaved=   3.
 NSaved= 3 IEnMin= 3 EnMin= -195.714134860303     IErMin= 3 ErrMin= 2.24D-03
 ErrMax= 2.24D-03 EMaxC= 1.00D-01 BMatC= 3.83D-03 BMatP= 4.67D-02
 IDIUse=3 WtCom= 9.78D-01 WtEn= 2.24D-02
 Coeff-Com: -0.506D-01 0.168D+00 0.883D+00
 Coeff-En:   0.000D+00 0.000D+00 0.100D+01
 Coeff:     -0.494D-01 0.164D+00 0.885D+00
 Gap=     0.223 Goal=   None    Shift=    0.000
 Gap=     0.164 Goal=   None    Shift=    0.000
 RMSDP=4.10D-04 MaxDP=2.44D-02 DE=-9.40D-02 OVMax= 6.63D-02

 Cycle   4  Pass 1  IDiag  1:
 RMSU=  2.23D-04    CP:  9.42D-01  7.27D-01  1.07D+00
 E= -195.717229673851     Delta-E=       -0.003094813548 Rises=F Damp=F
 DIIS: error= 1.44D-03 at cycle   4 NSaved=   4.
 NSaved= 4 IEnMin= 4 EnMin= -195.717229673851     IErMin= 4 ErrMin= 1.44D-03
 ErrMax= 1.44D-03 EMaxC= 1.00D-01 BMatC= 1.48D-03 BMatP= 3.83D-03
 IDIUse=3 WtCom= 9.86D-01 WtEn= 1.44D-02
 Coeff-Com: -0.131D-01 0.282D-01 0.348D+00 0.637D+00
 Coeff-En:   0.000D+00 0.000D+00 0.000D+00 0.100D+01
 Coeff:     -0.129D-01 0.278D-01 0.343D+00 0.642D+00
 Gap=     0.224 Goal=   None    Shift=    0.000
 Gap=     0.168 Goal=   None    Shift=    0.000
 RMSDP=2.51D-04 MaxDP=1.19D-02 DE=-3.09D-03 OVMax= 3.93D-02

 Cycle   5  Pass 1  IDiag  1:
 RMSU=  1.10D-04    CP:  9.39D-01  7.07D-01  1.13D+00  1.38D+00
 E= -195.718734051207     Delta-E=       -0.001504377356 Rises=F Damp=F
 DIIS: error= 1.27D-03 at cycle   5 NSaved=   5.
 NSaved= 5 IEnMin= 5 EnMin= -195.718734051207     IErMin= 5 ErrMin= 1.27D-03
 ErrMax= 1.27D-03 EMaxC= 1.00D-01 BMatC= 6.98D-04 BMatP= 1.48D-03
 IDIUse=3 WtCom= 9.87D-01 WtEn= 1.27D-02
 Coeff-Com:  0.146D-01-0.423D-01-0.188D+00-0.103D+00 0.132D+01
 Coeff-En:   0.000D+00 0.000D+00 0.000D+00 0.000D+00 0.100D+01
 Coeff:      0.144D-01-0.418D-01-0.186D+00-0.102D+00 0.132D+01
 Gap=     0.225 Goal=   None    Shift=    0.000
 Gap=     0.175 Goal=   None    Shift=    0.000
 RMSDP=3.61D-04 MaxDP=1.42D-02 DE=-1.50D-03 OVMax= 7.59D-02

 Cycle   6  Pass 1  IDiag  1:
 RMSU=  7.91D-05    CP:  9.35D-01  6.96D-01  1.17D+00  2.08D+00  2.32D+00
 E= -195.720772951778     Delta-E=       -0.002038900570 Rises=F Damp=F
 DIIS: error= 1.05D-03 at cycle   6 NSaved=   6.
 NSaved= 6 IEnMin= 6 EnMin= -195.720772951778     IErMin= 6 ErrMin= 1.05D-03
 ErrMax= 1.05D-03 EMaxC= 1.00D-01 BMatC= 3.54D-04 BMatP= 6.98D-04
 IDIUse=3 WtCom= 9.89D-01 WtEn= 1.05D-02
 Coeff-Com:  0.246D-02-0.381D-03-0.112D+00-0.425D+00-0.172D-01 0.155D+01
 Coeff-En:   0.000D+00 0.000D+00 0.000D+00 0.000D+00 0.000D+00 0.100D+01
 Coeff:      0.244D-02-0.377D-03-0.111D+00-0.421D+00-0.170D-01 0.155D+01
 Gap=     0.226 Goal=   None    Shift=    0.000
 Gap=     0.182 Goal=   None    Shift=    0.000
 RMSDP=4.35D-04 MaxDP=1.52D-02 DE=-2.04D-03 OVMax= 8.89D-02

 Cycle   7  Pass 1  IDiag  1:
 RMSU=  1.17D-04    CP:  9.31D-01  6.82D-01  1.21D+00  2.83D+00  3.00D+00
                    CP:  2.57D+00
 E= -195.722141305734     Delta-E=       -0.001368353957 Rises=F Damp=F
 DIIS: error= 5.63D-04 at cycle   7 NSaved=   7.
 NSaved= 7 IEnMin= 7 EnMin= -195.722141305734     IErMin= 7 ErrMin= 5.63D-04
 ErrMax= 5.63D-04 EMaxC= 1.00D-01 BMatC= 1.38D-04 BMatP= 3.54D-04
 IDIUse=3 WtCom= 9.94D-01 WtEn= 5.63D-03
 Coeff-Com: -0.557D-02 0.151D-01 0.509D-01-0.229D-01-0.351D+00 0.447D+00
 Coeff-Com:  0.867D+00
 Coeff-En:   0.000D+00 0.000D+00 0.000D+00 0.000D+00 0.000D+00 0.000D+00
 Coeff-En:   0.100D+01
 Coeff:     -0.554D-02 0.150D-01 0.506D-01-0.227D-01-0.349D+00 0.444D+00
 Coeff:      0.867D+00
 Gap=     0.225 Goal=   None    Shift=    0.000
 Gap=     0.180 Goal=   None    Shift=    0.000
 RMSDP=1.48D-04 MaxDP=6.47D-03 DE=-1.37D-03 OVMax= 2.05D-02

 Cycle   8  Pass 1  IDiag  1:
 RMSU=  4.31D-05    CP:  9.30D-01  6.82D-01  1.21D+00  2.92D+00  3.00D+00
                    CP:  3.00D+00  1.43D+00
 E= -195.722302327459     Delta-E=       -0.000161021724 Rises=F Damp=F
 DIIS: error= 3.54D-04 at cycle   8 NSaved=   8.
 NSaved= 8 IEnMin= 8 EnMin= -195.722302327459     IErMin= 8 ErrMin= 3.54D-04
 ErrMax= 3.54D-04 EMaxC= 1.00D-01 BMatC= 6.45D-05 BMatP= 1.38D-04
 IDIUse=3 WtCom= 9.96D-01 WtEn= 3.54D-03
 Coeff-Com: -0.447D-02 0.843D-02 0.837D-01 0.189D+00-0.217D+00-0.505D+00
 Coeff-Com:  0.497D+00 0.948D+00
 Coeff-En:   0.000D+00 0.000D+00 0.000D+00 0.000D+00 0.000D+00 0.000D+00
 Coeff-En:   0.000D+00 0.100D+01
 Coeff:     -0.446D-02 0.840D-02 0.834D-01 0.188D+00-0.216D+00-0.503D+00
 Coeff:      0.496D+00 0.948D+00
 Gap=     0.225 Goal=   None    Shift=    0.000
 Gap=     0.177 Goal=   None    Shift=    0.000
 RMSDP=1.38D-04 MaxDP=5.16D-03 DE=-1.61D-04 OVMax= 2.38D-02

 Cycle   9  Pass 1  IDiag  1:
 RMSU=  4.12D-05    CP:  9.29D-01  6.85D-01  1.21D+00  3.00D+00  3.00D+00
                    CP:  3.00D+00  1.93D+00  1.61D+00
 E= -195.722405650341     Delta-E=       -0.000103322882 Rises=F Damp=F
 DIIS: error= 1.46D-04 at cycle   9 NSaved=   9.
 NSaved= 9 IEnMin= 9 EnMin= -195.722405650341     IErMin= 9 ErrMin= 1.46D-04
 ErrMax= 1.46D-04 EMaxC= 1.00D-01 BMatC= 7.86D-06 BMatP= 6.45D-05
 IDIUse=3 WtCom= 9.99D-01 WtEn= 1.46D-03
 Coeff-Com:  0.297D-03 0.400D-04 0.327D-02-0.151D-01-0.458D-01 0.196D-01
 Coeff-Com: -0.635D-01 0.127D+00 0.974D+00
 Coeff-En:   0.000D+00 0.000D+00 0.000D+00 0.000D+00 0.000D+00 0.000D+00
 Coeff-En:   0.000D+00 0.000D+00 0.100D+01
 Coeff:      0.296D-03 0.399D-04 0.327D-02-0.151D-01-0.458D-01 0.196D-01
 Coeff:     -0.634D-01 0.127D+00 0.974D+00
 Gap=     0.225 Goal=   None    Shift=    0.000
 Gap=     0.179 Goal=   None    Shift=    0.000
 RMSDP=7.89D-05 MaxDP=5.09D-03 DE=-1.03D-04 OVMax= 1.03D-02

 Cycle  10  Pass 1  IDiag  1:
 RMSU=  2.75D-05    CP:  9.29D-01  6.82D-01  1.21D+00  3.00D+00  3.00D+00
                    CP:  3.00D+00  2.04D+00  1.22D+00  1.64D+00
 E= -195.722419223285     Delta-E=       -0.000013572944 Rises=F Damp=F
 DIIS: error= 5.79D-05 at cycle  10 NSaved=  10.
 NSaved=10 IEnMin=10 EnMin= -195.722419223285     IErMin=10 ErrMin= 5.79D-05
 ErrMax= 5.79D-05 EMaxC= 1.00D-01 BMatC= 3.25D-06 BMatP= 7.86D-06
 IDIUse=1 WtCom= 1.00D+00 WtEn= 0.00D+00
 Coeff-Com:  0.155D-04 0.233D-03 0.630D-02 0.212D-01 0.256D-01-0.284D-01
 Coeff-Com: -0.789D-01-0.370D-01 0.166D+00 0.925D+00
 Coeff:      0.155D-04 0.233D-03 0.630D-02 0.212D-01 0.256D-01-0.284D-01
 Coeff:     -0.789D-01-0.370D-01 0.166D+00 0.925D+00
 Gap=     0.225 Goal=   None    Shift=    0.000
 Gap=     0.178 Goal=   None    Shift=    0.000
 RMSDP=3.20D-05 MaxDP=1.10D-03 DE=-1.36D-05 OVMax= 3.31D-03

 Cycle  11  Pass 1  IDiag  1:
 RMSU=  1.34D-05    CP:  9.30D-01  6.84D-01  1.21D+00  3.00D+00  3.00D+00
                    CP:  3.00D+00  2.02D+00  1.41D+00  1.60D+00  9.74D-01
 E= -195.722420370729     Delta-E=       -0.000001147444 Rises=F Damp=F
 DIIS: error= 6.38D-05 at cycle  11 NSaved=  11.
 NSaved=11 IEnMin=11 EnMin= -195.722420370729     IErMin=10 ErrMin= 5.79D-05
 ErrMax= 6.38D-05 EMaxC= 1.00D-01 BMatC= 4.95D-06 BMatP= 3.25D-06
 IDIUse=1 WtCom= 1.00D+00 WtEn= 0.00D+00
 Coeff-Com:  0.475D-04-0.625D-04 0.247D-03 0.161D-02 0.159D-01 0.296D-01
 Coeff-Com: -0.601D-01-0.116D+00-0.188D+00 0.802D+00 0.515D+00
 Coeff:      0.475D-04-0.625D-04 0.247D-03 0.161D-02 0.159D-01 0.296D-01
 Coeff:     -0.601D-01-0.116D+00-0.188D+00 0.802D+00 0.515D+00
 Gap=     0.225 Goal=   None    Shift=    0.000
 Gap=     0.178 Goal=   None    Shift=    0.000
 RMSDP=2.30D-05 MaxDP=1.48D-03 DE=-1.15D-06 OVMax= 3.47D-03

 Cycle  12  Pass 1  IDiag  1:
 RMSU=  3.78D-06    CP:  9.30D-01  6.84D-01  1.21D+00  3.00D+00  3.00D+00
                    CP:  3.00D+00  2.08D+00  1.34D+00  1.81D+00  1.23D+00
                    CP:  9.89D-01
 E= -195.722424402253     Delta-E=       -0.000004031525 Rises=F Damp=F
 DIIS: error= 3.89D-05 at cycle  12 NSaved=  12.
 NSaved=12 IEnMin=12 EnMin= -195.722424402253     IErMin=12 ErrMin= 3.89D-05
 ErrMax= 3.89D-05 EMaxC= 1.00D-01 BMatC= 8.33D-07 BMatP= 3.25D-06
 IDIUse=1 WtCom= 1.00D+00 WtEn= 0.00D+00
 Coeff-Com: -0.281D-03 0.538D-03 0.698D-02 0.172D-01-0.284D-02-0.418D-01
 Coeff-Com:  0.245D-01 0.173D-01-0.875D-01 0.128D+00-0.365D+00 0.130D+01
 Coeff:     -0.281D-03 0.538D-03 0.698D-02 0.172D-01-0.284D-02-0.418D-01
 Coeff:      0.245D-01 0.173D-01-0.875D-01 0.128D+00-0.365D+00 0.130D+01
 Gap=     0.224 Goal=   None    Shift=    0.000
 Gap=     0.178 Goal=   None    Shift=    0.000
 RMSDP=9.27D-06 MaxDP=3.98D-04 DE=-4.03D-06 OVMax= 1.81D-03

 Cycle  13  Pass 1  IDiag  1:
 RMSU=  2.22D-06    CP:  9.30D-01  6.85D-01  1.21D+00  3.00D+00  3.00D+00
                    CP:  3.00D+00  2.09D+00  1.33D+00  1.86D+00  1.27D+00
                    CP:  1.05D+00  2.11D+00
 E= -195.722426104954     Delta-E=       -0.000001702701 Rises=F Damp=F
 DIIS: error= 3.47D-05 at cycle  13 NSaved=  13.
 NSaved=13 IEnMin=13 EnMin= -195.722426104954     IErMin=13 ErrMin= 3.47D-05
 ErrMax= 3.47D-05 EMaxC= 1.00D-01 BMatC= 6.52D-07 BMatP= 8.33D-07
 IDIUse=1 WtCom= 1.00D+00 WtEn= 0.00D+00
 Coeff-Com: -0.210D-03 0.508D-03 0.477D-02 0.861D-02-0.895D-02-0.242D-01
 Coeff-Com:  0.308D-01 0.269D-01 0.855D-03-0.641D-01-0.471D+00 0.653D-01
 Coeff-Com:  0.143D+01
 Coeff:     -0.210D-03 0.508D-03 0.477D-02 0.861D-02-0.895D-02-0.242D-01
 Coeff:      0.308D-01 0.269D-01 0.855D-03-0.641D-01-0.471D+00 0.653D-01
 Coeff:      0.143D+01
 Gap=     0.224 Goal=   None    Shift=    0.000
 Gap=     0.178 Goal=   None    Shift=    0.000
 RMSDP=1.33D-05 MaxDP=5.31D-04 DE=-1.70D-06 OVMax= 2.53D-03

 Cycle  14  Pass 1  IDiag  1:
 RMSU=  3.11D-06    CP:  9.30D-01  6.85D-01  1.21D+00  3.00D+00  3.00D+00
                    CP:  3.00D+00  2.11D+00  1.30D+00  1.94D+00  1.36D+00
                    CP:  1.12D+00  3.00D+00  2.23D+00
 E= -195.722428175672     Delta-E=       -0.000002070718 Rises=F Damp=F
 DIIS: error= 2.96D-05 at cycle  14 NSaved=  14.
 NSaved=14 IEnMin=14 EnMin= -195.722428175672     IErMin=14 ErrMin= 2.96D-05
 ErrMax= 2.96D-05 EMaxC= 1.00D-01 BMatC= 2.67D-07 BMatP= 6.52D-07
 IDIUse=1 WtCom= 1.00D+00 WtEn= 0.00D+00
 Coeff-Com: -0.901D-04 0.233D-03 0.117D-02 0.156D-02-0.298D-03 0.104D-01
 Coeff-Com: -0.103D-01-0.219D-01-0.174D-01 0.699D-01 0.241D+00-0.573D+00
 Coeff-Com: -0.837D+00 0.214D+01
 Coeff:     -0.901D-04 0.233D-03 0.117D-02 0.156D-02-0.298D-03 0.104D-01
 Coeff:     -0.103D-01-0.219D-01-0.174D-01 0.699D-01 0.241D+00-0.573D+00
 Coeff:     -0.837D+00 0.214D+01
 Gap=     0.224 Goal=   None    Shift=    0.000
 Gap=     0.178 Goal=   None    Shift=    0.000
 RMSDP=1.71D-05 MaxDP=6.71D-04 DE=-2.07D-06 OVMax= 3.22D-03

 Cycle  15  Pass 1  IDiag  1:
 RMSU=  4.91D-06    CP:  9.30D-01  6.85D-01  1.21D+00  3.00D+00  3.00D+00
                    CP:  3.00D+00  2.13D+00  1.29D+00  2.00D+00  1.40D+00
                    CP:  1.37D+00  3.00D+00  3.00D+00  3.00D+00
 E= -195.722430426375     Delta-E=       -0.000002250703 Rises=F Damp=F
 DIIS: error= 2.14D-05 at cycle  15 NSaved=  15.
 NSaved=15 IEnMin=15 EnMin= -195.722430426375     IErMin=15 ErrMin= 2.14D-05
 ErrMax= 2.14D-05 EMaxC= 1.00D-01 BMatC= 1.96D-07 BMatP= 2.67D-07
 IDIUse=1 WtCom= 1.00D+00 WtEn= 0.00D+00
 Coeff-Com: -0.270D-04 0.572D-04-0.319D-03-0.115D-02 0.437D-02 0.220D-01
 Coeff-Com: -0.395D-01-0.425D-01-0.105D-01 0.203D+00 0.682D+00-0.140D+00
 Coeff-Com: -0.318D+01 0.162D+01 0.187D+01
 Coeff:     -0.270D-04 0.572D-04-0.319D-03-0.115D-02 0.437D-02 0.220D-01
 Coeff:     -0.395D-01-0.425D-01-0.105D-01 0.203D+00 0.682D+00-0.140D+00
 Coeff:     -0.318D+01 0.162D+01 0.187D+01
 Gap=     0.224 Goal=   None    Shift=    0.000
 Gap=     0.178 Goal=   None    Shift=    0.000
 RMSDP=3.26D-05 MaxDP=1.28D-03 DE=-2.25D-06 OVMax= 6.24D-03

 Cycle  16  Pass 1  IDiag  1:
 RMSU=  1.35D-05    CP:  9.30D-01  6.86D-01  1.21D+00  3.00D+00  3.00D+00
                    CP:  3.00D+00  2.16D+00  1.28D+00  2.09D+00  1.47D+00
                    CP:  1.79D+00  3.00D+00  3.00D+00  3.00D+00  3.00D+00
 E= -195.722432741189     Delta-E=       -0.000002314814 Rises=F Damp=F
 DIIS: error= 9.16D-06 at cycle  16 NSaved=  16.
 NSaved=16 IEnMin=16 EnMin= -195.722432741189     IErMin=16 ErrMin= 9.16D-06
 ErrMax= 9.16D-06 EMaxC= 1.00D-01 BMatC= 7.13D-08 BMatP= 1.96D-07
 IDIUse=1 WtCom= 1.00D+00 WtEn= 0.00D+00
 Coeff-Com: -0.162D-04 0.467D-04 0.498D-03 0.536D-03 0.107D-02 0.351D-02
 Coeff-Com: -0.122D-01-0.143D-01-0.330D-02 0.111D+00 0.143D+00-0.353D-01
 Coeff-Com: -0.898D+00 0.332D+00 0.463D+00 0.909D+00
 Coeff:     -0.162D-04 0.467D-04 0.498D-03 0.536D-03 0.107D-02 0.351D-02
 Coeff:     -0.122D-01-0.143D-01-0.330D-02 0.111D+00 0.143D+00-0.353D-01
 Coeff:     -0.898D+00 0.332D+00 0.463D+00 0.909D+00
 Gap=     0.224 Goal=   None    Shift=    0.000
 Gap=     0.178 Goal=   None    Shift=    0.000
 RMSDP=8.54D-06 MaxDP=3.26D-04 DE=-2.31D-06 OVMax= 1.63D-03

 Cycle  17  Pass 1  IDiag  1:
 RMSU=  1.32D-06    CP:  9.30D-01  6.86D-01  1.21D+00  3.00D+00  3.00D+00
                    CP:  3.00D+00  2.17D+00  1.27D+00  2.13D+00  1.50D+00
                    CP:  1.86D+00  3.00D+00  3.00D+00  3.00D+00  3.00D+00
                    CP:  1.39D+00
 E= -195.722432913519     Delta-E=       -0.000000172330 Rises=F Damp=F
 DIIS: error= 3.60D-06 at cycle  17 NSaved=  17.
 NSaved=17 IEnMin=17 EnMin= -195.722432913519     IErMin=17 ErrMin= 3.60D-06
 ErrMax= 3.60D-06 EMaxC= 1.00D-01 BMatC= 1.05D-08 BMatP= 7.13D-08
 IDIUse=1 WtCom= 1.00D+00 WtEn= 0.00D+00
 Coeff-Com:  0.123D-04-0.215D-04 0.686D-04 0.164D-03-0.435D-04-0.227D-02
 Coeff-Com:  0.382D-02 0.214D-02-0.693D-02 0.713D-02-0.107D+00-0.178D-01
 Coeff-Com:  0.453D+00-0.157D+00-0.363D+00-0.476D-01 0.124D+01
 Coeff:      0.123D-04-0.215D-04 0.686D-04 0.164D-03-0.435D-04-0.227D-02
 Coeff:      0.382D-02 0.214D-02-0.693D-02 0.713D-02-0.107D+00-0.178D-01
 Coeff:      0.453D+00-0.157D+00-0.363D+00-0.476D-01 0.124D+01
 Gap=     0.224 Goal=   None    Shift=    0.000
 Gap=     0.178 Goal=   None    Shift=    0.000
 RMSDP=3.63D-06 MaxDP=1.56D-04 DE=-1.72D-07 OVMax= 6.39D-04

 Cycle  18  Pass 1  IDiag  1:
 RMSU=  2.13D-07    CP:  9.30D-01  6.86D-01  1.21D+00  3.00D+00  3.00D+00
                    CP:  3.00D+00  2.18D+00  1.26D+00  2.15D+00  1.53D+00
                    CP:  1.89D+00  3.00D+00  3.00D+00  3.00D+00  3.00D+00
                    CP:  1.54D+00  1.39D+00
 E= -195.722432928426     Delta-E=       -0.000000014907 Rises=F Damp=F
 DIIS: error= 5.77D-07 at cycle  18 NSaved=  18.
 NSaved=18 IEnMin=18 EnMin= -195.722432928426     IErMin=18 ErrMin= 5.77D-07
 ErrMax= 5.77D-07 EMaxC= 1.00D-01 BMatC= 3.12D-10 BMatP= 1.05D-08
 IDIUse=1 WtCom= 1.00D+00 WtEn= 0.00D+00
 Coeff-Com:  0.238D-05-0.889D-05-0.158D-04 0.862D-04 0.133D-03-0.450D-03
 Coeff-Com:  0.601D-03 0.862D-03-0.192D-02-0.330D-02-0.706D-02 0.142D-01
 Coeff-Com:  0.394D-01-0.271D-01-0.238D-01-0.371D-01 0.112D+00 0.933D+00
 Coeff:      0.238D-05-0.889D-05-0.158D-04 0.862D-04 0.133D-03-0.450D-03
 Coeff:      0.601D-03 0.862D-03-0.192D-02-0.330D-02-0.706D-02 0.142D-01
 Coeff:      0.394D-01-0.271D-01-0.238D-01-0.371D-01 0.112D+00 0.933D+00
 Gap=     0.224 Goal=   None    Shift=    0.000
 Gap=     0.178 Goal=   None    Shift=    0.000
 RMSDP=3.38D-07 MaxDP=1.18D-05 DE=-1.49D-08 OVMax= 6.48D-05

 Cycle  19  Pass 1  IDiag  1:
 RMSU=  4.04D-08    CP:  9.30D-01  6.86D-01  1.21D+00  3.00D+00  3.00D+00
                    CP:  3.00D+00  2.18D+00  1.26D+00  2.14D+00  1.53D+00
                    CP:  1.89D+00  3.00D+00  3.00D+00  3.00D+00  3.00D+00
                    CP:  1.52D+00  1.35D+00  1.09D+00
 E= -195.722432928726     Delta-E=       -0.000000000300 Rises=F Damp=F
 DIIS: error= 1.07D-07 at cycle  19 NSaved=  19.
 NSaved=19 IEnMin=19 EnMin= -195.722432928726     IErMin=19 ErrMin= 1.07D-07
 ErrMax= 1.07D-07 EMaxC= 1.00D-01 BMatC= 1.27D-11 BMatP= 3.12D-10
 IDIUse=1 WtCom= 1.00D+00 WtEn= 0.00D+00
 Coeff-Com: -0.414D-06 0.809D-06-0.203D-05-0.190D-04-0.575D-04 0.306D-04
 Coeff-Com:  0.322D-04 0.193D-03 0.491D-03-0.131D-02 0.261D-03 0.117D-02
 Coeff-Com: -0.313D-02-0.432D-03 0.680D-02-0.214D-03-0.486D-01-0.224D-01
 Coeff-Com:  0.107D+01
 Coeff:     -0.414D-06 0.809D-06-0.203D-05-0.190D-04-0.575D-04 0.306D-04
 Coeff:      0.322D-04 0.193D-03 0.491D-03-0.131D-02 0.261D-03 0.117D-02
 Coeff:     -0.313D-02-0.432D-03 0.680D-02-0.214D-03-0.486D-01-0.224D-01
 Coeff:      0.107D+01
 Gap=     0.224 Goal=   None    Shift=    0.000
 Gap=     0.178 Goal=   None    Shift=    0.000
 RMSDP=6.29D-08 MaxDP=2.60D-06 DE=-3.00D-10 OVMax= 6.50D-06

 Cycle  20  Pass 1  IDiag  1:
 Restarting incremental Fock formation.
 E= -195.722432928752     Delta-E=       -0.000000000026 Rises=F Damp=F
 DIIS: error= 6.30D-08 at cycle  20 NSaved=  20.
 NSaved=20 IEnMin=20 EnMin= -195.722432928752     IErMin=20 ErrMin= 6.30D-08
 ErrMax= 6.30D-08 EMaxC= 1.00D-01 BMatC= 4.49D-12 BMatP= 1.27D-11
 IDIUse=1 WtCom= 1.00D+00 WtEn= 0.00D+00
 Coeff-Com: -0.246D-06 0.745D-06 0.238D-05 0.126D-05-0.913D-05 0.258D-04
 Coeff-Com: -0.665D-04-0.538D-04 0.107D-03 0.226D-03 0.547D-03-0.113D-02
 Coeff-Com: -0.114D-02 0.727D-03 0.991D-03 0.409D-02-0.119D-01-0.125D+00
 Coeff-Com:  0.113D+00 0.102D+01
 Coeff:     -0.246D-06 0.745D-06 0.238D-05 0.126D-05-0.913D-05 0.258D-04
 Coeff:     -0.665D-04-0.538D-04 0.107D-03 0.226D-03 0.547D-03-0.113D-02
 Coeff:     -0.114D-02 0.727D-03 0.991D-03 0.409D-02-0.119D-01-0.125D+00
 Coeff:      0.113D+00 0.102D+01
 Gap=     0.224 Goal=   None    Shift=    0.000
 Gap=     0.178 Goal=   None    Shift=    0.000
 RMSDP=4.27D-08 MaxDP=2.16D-06 DE=-2.63D-11 OVMax= 6.26D-06

 Cycle  21  Pass 1  IDiag  1:
 RMSU=  2.42D-08    CP:  1.00D+00
 E= -195.722432928757     Delta-E=       -0.000000000004 Rises=F Damp=F
 DIIS: error= 1.41D-08 at cycle  21 NSaved=  20.
 NSaved=20 IEnMin=20 EnMin= -195.722432928757     IErMin=20 ErrMin= 1.41D-08
 ErrMax= 1.41D-08 EMaxC= 1.00D-01 BMatC= 1.22D-13 BMatP= 4.49D-12
 IDIUse=1 WtCom= 1.00D+00 WtEn= 0.00D+00
 Coeff-Com:  0.347D-07 0.184D-06 0.343D-06-0.198D-05 0.932D-05-0.149D-05
 Coeff-Com: -0.314D-05-0.402D-04 0.554D-04 0.145D-03-0.198D-03-0.366D-03
 Coeff-Com:  0.467D-03 0.134D-03-0.626D-03 0.237D-02 0.144D-01-0.813D-01
 Coeff-Com: -0.910D-01 0.116D+01
 Coeff:      0.347D-07 0.184D-06 0.343D-06-0.198D-05 0.932D-05-0.149D-05
 Coeff:     -0.314D-05-0.402D-04 0.554D-04 0.145D-03-0.198D-03-0.366D-03
 Coeff:      0.467D-03 0.134D-03-0.626D-03 0.237D-02 0.144D-01-0.813D-01
 Coeff:     -0.910D-01 0.116D+01
 Gap=     0.224 Goal=   None    Shift=    0.000
 Gap=     0.178 Goal=   None    Shift=    0.000
 RMSDP=7.55D-09 MaxDP=3.54D-07 DE=-4.21D-12 OVMax= 1.00D-06

 SCF Done:  E(UM062X) =  -195.722432929     A.U. after   21 cycles
             Convg  =    0.7555D-08             -V/T =  2.0045
 <Sx>= 0.0000 <Sy>= 0.0000 <Sz>= 0.5000 <S**2>= 0.8088 S= 0.5290
 <L.S>= 0.000000000000E+00
 KE= 1.948491834513D+02 PE=-7.870958518079D+02 EE= 2.295078458949D+02
 Annihilation of the first spin contaminant:
 S**2 before annihilation     0.8088,   after     0.7506
 Leave Link  502 at Tue Jun 12 13:27:05 2018, MaxMem=  671088640 cpu:    2401.3
 (Enter /shared/apps/gaussian/G09_LINUX_LINDA/g09/l601.exe)
 Copying SCF densities to generalized density rwf, IOpCl= 1 IROHF=0.

 **********************************************************************

            Population analysis using the SCF density.

 **********************************************************************

 Orbital symmetries:
 Alpha Orbitals:
       Occupied  (A) (A) (A) (A) (A) (A) (A) (A) (A) (A) (A) (A)
                 (A) (A) (A) (A) (A) (A) (A) (A)
       Virtual   (A) (A) (A) (A) (A) (A) (A) (A) (A) (A) (A) (A)
                 (A) (A) (A) (A) (A) (A) (A) (A) (A) (A) (A) (A)
                 (A) (A) (A) (A) (A) (A) (A) (A) (A) (A) (A) (A)
                 (A) (A) (A) (A) (A) (A) (A) (A) (A) (A) (A) (A)
                 (A) (A) (A) (A) (A) (A) (A) (A) (A) (A) (A) (A)
                 (A) (A) (A) (A) (A) (A) (A) (A) (A) (A) (A) (A)
                 (A) (A) (A) (A) (A) (A) (A) (A) (A) (A) (A) (A)
                 (A) (A) (A) (A) (A) (A) (A) (A) (A) (A) (A) (A)
                 (A) (A) (A) (A) (A) (A) (A) (A) (A) (A) (A) (A)
                 (A) (A) (A) (A) (A) (A) (A) (A) (A) (A) (A) (A)
                 (A) (A) (A) (A) (A) (A) (A) (A) (A) (A) (A) (A)
                 (A) (A) (A) (A) (A) (A) (A) (A) (A) (A) (A) (A)
                 (A) (A) (A) (A) (A) (A) (A) (A) (A) (A) (A) (A)
                 (A) (A) (A) (A) (A) (A) (A) (A) (A) (A) (A) (A)
                 (A) (A) (A) (A) (A) (A) (A) (A) (A) (A) (A) (A)
                 (A) (A) (A) (A) (A) (A) (A) (A) (A) (A) (A) (A)
                 (A) (A) (A) (A) (A) (A) (A) (A) (A) (A) (A) (A)
                 (A) (A) (A) (A) (A) (A) (A) (A) (A) (A) (A) (A)
                 (A) (A) (A) (A) (A) (A) (A) (A) (A) (A) (A) (A)
                 (A) (A) (A)
 Beta  Orbitals:
       Occupied  (A) (A) (A) (A) (A) (A) (A) (A) (A) (A) (A) (A)
                 (A) (A) (A) (A) (A) (A) (A)
       Virtual   (A) (A) (A) (A) (A) (A) (A) (A) (A) (A) (A) (A)
                 (A) (A) (A) (A) (A) (A) (A) (A) (A) (A) (A) (A)
                 (A) (A) (A) (A) (A) (A) (A) (A) (A) (A) (A) (A)
                 (A) (A) (A) (A) (A) (A) (A) (A) (A) (A) (A) (A)
                 (A) (A) (A) (A) (A) (A) (A) (A) (A) (A) (A) (A)
                 (A) (A) (A) (A) (A) (A) (A) (A) (A) (A) (A) (A)
                 (A) (A) (A) (A) (A) (A) (A) (A) (A) (A) (A) (A)
                 (A) (A) (A) (A) (A) (A) (A) (A) (A) (A) (A) (A)
                 (A) (A) (A) (A) (A) (A) (A) (A) (A) (A) (A) (A)
                 (A) (A) (A) (A) (A) (A) (A) (A) (A) (A) (A) (A)
                 (A) (A) (A) (A) (A) (A) (A) (A) (A) (A) (A) (A)
                 (A) (A) (A) (A) (A) (A) (A) (A) (A) (A) (A) (A)
                 (A) (A) (A) (A) (A) (A) (A) (A) (A) (A) (A) (A)
                 (A) (A) (A) (A) (A) (A) (A) (A) (A) (A) (A) (A)
                 (A) (A) (A) (A) (A) (A) (A) (A) (A) (A) (A) (A)
                 (A) (A) (A) (A) (A) (A) (A) (A) (A) (A) (A) (A)
                 (A) (A) (A) (A) (A) (A) (A) (A) (A) (A) (A) (A)
                 (A) (A) (A) (A) (A) (A) (A) (A) (A) (A) (A) (A)
                 (A) (A) (A) (A) (A) (A) (A) (A) (A) (A) (A) (A)
                 (A) (A) (A) (A)
 The electronic state is 2-A.
 Alpha  occ. eigenvalues --  -10.56092 -10.53962 -10.53834 -10.53717 -10.52713
 Alpha  occ. eigenvalues --   -0.92836  -0.82543  -0.77926  -0.70871  -0.58741
 Alpha  occ. eigenvalues --   -0.53432  -0.50294  -0.49648  -0.47278  -0.45035
 Alpha  occ. eigenvalues --   -0.44955  -0.41033  -0.40193  -0.31582  -0.24069
 Alpha virt. eigenvalues --   -0.01687   0.02199   0.03295   0.04015   0.04348
 Alpha virt. eigenvalues --    0.06056   0.06363   0.06564   0.07706   0.07814
 Alpha virt. eigenvalues --    0.09951   0.10062   0.10899   0.11319   0.12978
 Alpha virt. eigenvalues --    0.13606   0.14117   0.16897   0.17972   0.18994
 Alpha virt. eigenvalues --    0.19742   0.21714   0.22456   0.22743   0.23417
 Alpha virt. eigenvalues --    0.24103   0.25881   0.27038   0.27996   0.28655
 Alpha virt. eigenvalues --    0.30091   0.33140   0.33460   0.36562   0.42194
 Alpha virt. eigenvalues --    0.42996   0.45370   0.46848   0.48133   0.49790
 Alpha virt. eigenvalues --    0.50867   0.51179   0.52406   0.54623   0.55266
 Alpha virt. eigenvalues --    0.56528   0.57212   0.57408   0.59139   0.60154
 Alpha virt. eigenvalues --    0.61160   0.63144   0.64178   0.64541   0.65085
 Alpha virt. eigenvalues --    0.68533   0.68871   0.69389   0.70020   0.71510
 Alpha virt. eigenvalues --    0.72201   0.74058   0.76884   0.80796   0.83783
 Alpha virt. eigenvalues --    0.86554   0.87683   0.89573   0.92995   0.94492
 Alpha virt. eigenvalues --    0.97368   0.98316   1.01397   1.03337   1.04110
 Alpha virt. eigenvalues --    1.06142   1.07388   1.09409   1.11429   1.13695
 Alpha virt. eigenvalues --    1.14706   1.17157   1.18072   1.19196   1.22434
 Alpha virt. eigenvalues --    1.23766   1.25267   1.29702   1.30333   1.32998
 Alpha virt. eigenvalues --    1.33310   1.34152   1.34969   1.36558   1.37327
 Alpha virt. eigenvalues --    1.39171   1.40367   1.42039   1.42768   1.44207
 Alpha virt. eigenvalues --    1.47046   1.48941   1.49830   1.51884   1.53860
 Alpha virt. eigenvalues --    1.55923   1.56573   1.57850   1.60353   1.61362
 Alpha virt. eigenvalues --    1.63511   1.66523   1.71229   1.74836   1.77565
 Alpha virt. eigenvalues --    2.39013   2.41948   2.45160   2.47777   2.51842
 Alpha virt. eigenvalues --    2.54165   2.60484   2.64916   2.67534   2.70589
 Alpha virt. eigenvalues --    2.73422   2.75223   2.78620   2.80136   2.83770
 Alpha virt. eigenvalues --    2.86268   2.88082   2.89239   2.90012   2.92972
 Alpha virt. eigenvalues --    2.94956   2.96622   2.97356   2.99225   3.01050
 Alpha virt. eigenvalues --    3.03153   3.04536   3.08021   3.10230   3.12515
 Alpha virt. eigenvalues --    3.14873   3.16535   3.17844   3.18455   3.21519
 Alpha virt. eigenvalues --    3.24155   3.26012   3.27296   3.28289   3.32022
 Alpha virt. eigenvalues --    3.32752   3.35212   3.38198   3.40118   3.41011
 Alpha virt. eigenvalues --    3.41970   3.42932   3.44881   3.47245   3.53024
 Alpha virt. eigenvalues --    3.54056   3.56945   3.58930   3.60790   3.62991
 Alpha virt. eigenvalues --    3.64099   3.66296   3.68701   3.71947   3.77319
 Alpha virt. eigenvalues --    3.81148   3.82957   3.83680   3.86343   3.88421
 Alpha virt. eigenvalues --    3.91052   3.92132   3.93533   3.99030   4.02111
 Alpha virt. eigenvalues --    4.03399   4.07868   4.10130   4.13396   4.15129
 Alpha virt. eigenvalues --    4.15383   4.16838   4.17720   4.19191   4.22466
 Alpha virt. eigenvalues --    4.23235   4.26643   4.31555   4.36644   4.37555
 Alpha virt. eigenvalues --    4.38737   4.43161   4.43769   4.45809   4.49242
 Alpha virt. eigenvalues --    4.50905   4.56156   4.56505   4.60861   4.63187
 Alpha virt. eigenvalues --    4.68644   4.72549   4.76084   4.86054   4.92783
 Alpha virt. eigenvalues --    5.11880   5.16150   5.24925   5.42563   5.43626
 Alpha virt. eigenvalues --    5.47950   5.51054   5.55130   5.58102   5.61114
 Alpha virt. eigenvalues --    5.72015  23.99072  24.22455  24.35404  24.39857
 Alpha virt. eigenvalues --   24.87301
  Beta  occ. eigenvalues --  -10.55212 -10.53995 -10.53973 -10.53546 -10.52735
  Beta  occ. eigenvalues --   -0.92347  -0.81002  -0.77891  -0.69309  -0.57558
  Beta  occ. eigenvalues --   -0.52802  -0.49780  -0.49289  -0.46468  -0.44832
  Beta  occ. eigenvalues --   -0.44241  -0.40876  -0.39656  -0.24288
  Beta virt. eigenvalues --   -0.06516  -0.01031   0.02235   0.03127   0.03793
  Beta virt. eigenvalues --    0.03951   0.05947   0.06392   0.06634   0.07633
  Beta virt. eigenvalues --    0.08046   0.09493   0.09772   0.10859   0.11521
  Beta virt. eigenvalues --    0.12223   0.13017   0.13308   0.16549   0.17068
  Beta virt. eigenvalues --    0.18795   0.19427   0.21220   0.22249   0.22783
  Beta virt. eigenvalues --    0.23079   0.24083   0.25879   0.27029   0.27987
  Beta virt. eigenvalues --    0.28789   0.30509   0.33020   0.33485   0.36597
  Beta virt. eigenvalues --    0.42243   0.42936   0.45137   0.46854   0.48062
  Beta virt. eigenvalues --    0.50200   0.51227   0.51698   0.52685   0.55115
  Beta virt. eigenvalues --    0.55254   0.56394   0.57087   0.57594   0.59274
  Beta virt. eigenvalues --    0.60100   0.61092   0.62901   0.64472   0.64759
  Beta virt. eigenvalues --    0.65341   0.67604   0.68607   0.68927   0.69795
  Beta virt. eigenvalues --    0.71058   0.71449   0.73765   0.76937   0.80173
  Beta virt. eigenvalues --    0.83913   0.86548   0.87603   0.89445   0.92874
  Beta virt. eigenvalues --    0.94208   0.97341   0.98295   1.00841   1.03305
  Beta virt. eigenvalues --    1.03817   1.05939   1.07382   1.09297   1.11451
  Beta virt. eigenvalues --    1.13573   1.14839   1.17020   1.18104   1.19309
  Beta virt. eigenvalues --    1.22515   1.23679   1.25357   1.29897   1.30356
  Beta virt. eigenvalues --    1.33091   1.33600   1.34270   1.35022   1.36559
  Beta virt. eigenvalues --    1.37398   1.39088   1.40309   1.42029   1.42941
  Beta virt. eigenvalues --    1.44058   1.46975   1.48709   1.49840   1.52057
  Beta virt. eigenvalues --    1.54304   1.55352   1.56634   1.57633   1.60169
  Beta virt. eigenvalues --    1.60962   1.63277   1.66237   1.71471   1.74909
  Beta virt. eigenvalues --    1.77708   2.39343   2.42398   2.45431   2.48171
  Beta virt. eigenvalues --    2.52207   2.54283   2.60911   2.65582   2.67808
  Beta virt. eigenvalues --    2.71029   2.73839   2.75847   2.80600   2.81650
  Beta virt. eigenvalues --    2.85272   2.86159   2.88472   2.90833   2.91399
  Beta virt. eigenvalues --    2.93935   2.95392   2.97515   2.98086   3.00047
  Beta virt. eigenvalues --    3.01767   3.04208   3.06098   3.09021   3.11446
  Beta virt. eigenvalues --    3.13682   3.15615   3.17401   3.18976   3.19588
  Beta virt. eigenvalues --    3.22820   3.24626   3.26428   3.27254   3.28729
  Beta virt. eigenvalues --    3.32149   3.33799   3.36084   3.39135   3.41437
  Beta virt. eigenvalues --    3.42349   3.42958   3.43724   3.46012   3.49390
  Beta virt. eigenvalues --    3.52526   3.54923   3.58485   3.61156   3.62844
  Beta virt. eigenvalues --    3.64547   3.64914   3.66438   3.69296   3.74602
  Beta virt. eigenvalues --    3.77977   3.82194   3.83017   3.84330   3.88091
  Beta virt. eigenvalues --    3.88835   3.91139   3.92773   3.94218   4.00114
  Beta virt. eigenvalues --    4.02641   4.04291   4.08525   4.10594   4.14360
  Beta virt. eigenvalues --    4.15483   4.15777   4.17369   4.17953   4.19628
  Beta virt. eigenvalues --    4.22436   4.24597   4.27260   4.31896   4.36778
  Beta virt. eigenvalues --    4.38109   4.39421   4.43283   4.44513   4.46192
  Beta virt. eigenvalues --    4.49701   4.51299   4.56198   4.56872   4.61708
  Beta virt. eigenvalues --    4.63819   4.69699   4.73304   4.77394   4.87263
  Beta virt. eigenvalues --    4.92979   5.12162   5.18595   5.25425   5.44593
  Beta virt. eigenvalues --    5.45547   5.49291   5.52094   5.55059   5.58269
  Beta virt. eigenvalues --    5.61081   5.72266  23.99393  24.23612  24.35426
  Beta virt. eigenvalues --   24.39949  24.87357
          Condensed to atoms (all electrons):
              1          2          3          4          5          6
     1  C    5.407054   0.322756  -0.186178   0.046919   0.022285   0.424946
     2  C    0.322756   5.770480  -0.001269  -0.458767   0.221307  -0.003939
     3  C   -0.186178  -0.001269   5.913057   0.431308  -0.102774  -0.062979
     4  C    0.046919  -0.458767   0.431308   5.523162  -0.271666  -0.011656
     5  C    0.022285   0.221307  -0.102774  -0.271666   5.384142   0.014883
     6  H    0.424946  -0.003939  -0.062979  -0.011656   0.014883   0.537331
     7  H    0.406141  -0.117164   0.039967   0.023259  -0.011933  -0.050100
     8  H   -0.016608   0.349683   0.001861   0.032264  -0.026501  -0.003433
     9  H   -0.003617  -0.106636  -0.014289   0.517274  -0.049714  -0.000291
    10  H    0.009985  -0.004707  -0.005082   0.365091   0.018517   0.000309
    11  H    0.002967   0.073569  -0.087850   0.350811   0.034378   0.000071
    12  H    0.000666   0.024075  -0.088695   0.013724   0.428632  -0.000133
    13  H    0.003679   0.034128  -0.055189  -0.025309   0.422802   0.000043
    14  H   -0.003493  -0.104087   0.062580   0.061897   0.339890  -0.000164
              7          8          9         10         11         12
     1  C    0.406141  -0.016608  -0.003617   0.009985   0.002967   0.000666
     2  C   -0.117164   0.349683  -0.106636  -0.004707   0.073569   0.024075
     3  C    0.039967   0.001861  -0.014289  -0.005082  -0.087850  -0.088695
     4  C    0.023259   0.032264   0.517274   0.365091   0.350811   0.013724
     5  C   -0.011933  -0.026501  -0.049714   0.018517   0.034378   0.428632
     6  H   -0.050100  -0.003433  -0.000291   0.000309   0.000071  -0.000133
     7  H    0.589559   0.000377   0.001259  -0.001290  -0.000182  -0.000001
     8  H    0.000377   0.493919   0.001320   0.000319  -0.000637  -0.002229
     9  H    0.001259   0.001320   0.562065  -0.028436  -0.046154  -0.000042
    10  H   -0.001290   0.000319  -0.028436   0.507960  -0.011221  -0.000269
    11  H   -0.000182  -0.000637  -0.046154  -0.011221   0.554980   0.000260
    12  H   -0.000001  -0.002229  -0.000042  -0.000269   0.000260   0.543130
    13  H    0.000001   0.000157   0.000805  -0.000132   0.000969  -0.024178
    14  H    0.000244   0.003053   0.004666  -0.000353  -0.007288  -0.029194
             13         14
     1  C    0.003679  -0.003493
     2  C    0.034128  -0.104087
     3  C   -0.055189   0.062580
     4  C   -0.025309   0.061897
     5  C    0.422802   0.339890
     6  H    0.000043  -0.000164
     7  H    0.000001   0.000244
     8  H    0.000157   0.003053
     9  H    0.000805   0.004666
    10  H   -0.000132  -0.000353
    11  H    0.000969  -0.007288
    12  H   -0.024178  -0.029194
    13  H    0.511778  -0.020413
    14  H   -0.020413   0.561671
 Mulliken atomic charges:
              1
     1  C   -0.437502
     2  C    0.000572
     3  C    0.155531
     4  C   -0.598311
     5  C   -0.424249
     6  H    0.155110
     7  H    0.119862
     8  H    0.166455
     9  H    0.161790
    10  H    0.149308
    11  H    0.135328
    12  H    0.134255
    13  H    0.150860
    14  H    0.130991
 Sum of Mulliken atomic charges =   0.00000
 Mulliken charges with hydrogens summed into heavy atoms:
              1
     1  C   -0.162531
     2  C    0.167027
     3  C    0.155531
     4  C   -0.151885
     5  C   -0.008143
 Sum of Mulliken charges with hydrogens summed into heavy atoms =   0.00000
          Atomic-Atomic Spin Densities.
              1          2          3          4          5          6
     1  C    1.081872  -0.062726   0.029108   0.024753  -0.020158  -0.012193
     2  C   -0.062726  -0.316357   0.008377   0.018586  -0.012390   0.013713
     3  C    0.029108   0.008377   0.298979  -0.061551   0.049445   0.002431
     4  C    0.024753   0.018586  -0.061551  -0.028625   0.057644   0.003237
     5  C   -0.020158  -0.012390   0.049445   0.057644  -0.113769  -0.005299
     6  H   -0.012193   0.013713   0.002431   0.003237  -0.005299  -0.039212
     7  H   -0.013140   0.017618  -0.004105  -0.007097   0.004843   0.006591
     8  H   -0.024270   0.012342  -0.016835   0.010424   0.006553  -0.001293
     9  H    0.001788  -0.002444  -0.016201   0.001274   0.014146   0.000010
    10  H   -0.004112   0.008557  -0.013998   0.020868  -0.010408  -0.000022
    11  H   -0.000525  -0.001881   0.004468  -0.002193  -0.002588  -0.000016
    12  H    0.001077   0.000278   0.002014  -0.002080  -0.001384   0.000026
    13  H    0.000192   0.004110  -0.011074  -0.005313   0.011814   0.000017
    14  H    0.000352  -0.001610  -0.015205   0.007806   0.006568   0.000021
              7          8          9         10         11         12
     1  C   -0.013140  -0.024270   0.001788  -0.004112  -0.000525   0.001077
     2  C    0.017618   0.012342  -0.002444   0.008557  -0.001881   0.000278
     3  C   -0.004105  -0.016835  -0.016201  -0.013998   0.004468   0.002014
     4  C   -0.007097   0.010424   0.001274   0.020868  -0.002193  -0.002080
     5  C    0.004843   0.006553   0.014146  -0.010408  -0.002588  -0.001384
     6  H    0.006591  -0.001293   0.000010  -0.000022  -0.000016   0.000026
     7  H   -0.033070  -0.001589  -0.000039   0.000082   0.000022  -0.000014
     8  H   -0.001589   0.082510   0.001381  -0.000106  -0.000142  -0.000723
     9  H   -0.000039   0.001381   0.018595  -0.001950  -0.002281  -0.000111
    10  H    0.000082  -0.000106  -0.001950  -0.003929   0.001280   0.000023
    11  H    0.000022  -0.000142  -0.002281   0.001280   0.002229   0.000060
    12  H   -0.000014  -0.000723  -0.000111   0.000023   0.000060   0.002412
    13  H   -0.000009  -0.000137  -0.000344   0.000079   0.000698   0.000161
    14  H   -0.000007   0.001130   0.001947  -0.000091  -0.000534  -0.000701
             13         14
     1  C    0.000192   0.000352
     2  C    0.004110  -0.001610
     3  C   -0.011074  -0.015205
     4  C   -0.005313   0.007806
     5  C    0.011814   0.006568
     6  H    0.000017   0.000021
     7  H   -0.000009  -0.000007
     8  H   -0.000137   0.001130
     9  H   -0.000344   0.001947
    10  H    0.000079  -0.000091
    11  H    0.000698  -0.000534
    12  H    0.000161  -0.000701
    13  H    0.005594  -0.002462
    14  H   -0.002462   0.013640
 Mulliken atomic spin densities:
              1
     1  C    1.002018
     2  C   -0.313827
     3  C    0.255855
     4  C    0.037734
     5  C   -0.014984
     6  H   -0.031986
     7  H   -0.029912
     8  H    0.069244
     9  H    0.015771
    10  H   -0.003728
    11  H   -0.001403
    12  H    0.001038
    13  H    0.003326
    14  H    0.010855
 Sum of Mulliken atomic spin densities =   1.00000
 Electronic spatial extent (au):  <R**2>=            499.6635
 Charge=              0.0000 electrons
 Dipole moment (field-independent basis, Debye):
    X=             -0.2366    Y=             -0.2410    Z=              0.8911  Tot=              0.9530
 Quadrupole moment (field-independent basis, Debye-Ang):
   XX=            -33.4285   YY=            -33.5987   ZZ=            -33.6511
   XY=             -1.2728   XZ=              1.2568   YZ=              0.3221
 Traceless Quadrupole moment (field-independent basis, Debye-Ang):
   XX=              0.1309   YY=             -0.0392   ZZ=             -0.0917
   XY=             -1.2728   XZ=              1.2568   YZ=              0.3221
 Octapole moment (field-independent basis, Debye-Ang**2):
  XXX=             -1.3368  YYY=             -0.2662  ZZZ=              4.1620  XYY=              0.2034
  XXY=             -2.3557  XXZ=             -0.1433  XZZ=             -1.8914  YZZ=             -0.7708
  YYZ=             -0.4637  XYZ=              0.2942
 Hexadecapole moment (field-independent basis, Debye-Ang**3):
 XXXX=           -438.3549 YYYY=           -220.1666 ZZZZ=            -74.1558 XXXY=            -12.7373
 XXXZ=              9.2578 YYYX=             -0.4633 YYYZ=              0.6596 ZZZX=              4.5388
 ZZZY=              1.1929 XXYY=           -109.9065 XXZZ=            -82.5505 YYZZ=            -49.6055
 XXYZ=              5.6372 YYXZ=              0.3799 ZZXY=             -1.3681
 N-N= 1.670163895329D+02 E-N=-1.174817704939D+03  KE= 2.916140373741D+02
                          Isotropic Fermi Contact Couplings
        Atom                 a.u.       MegaHertz       Gauss      10(-4) cm-1
     1  C(13)              0.42330     475.87310     169.80335     158.73418
     2  C(13)             -0.03744     -42.09035     -15.01888     -14.03983
     3  C(13)              0.06626      74.48745      26.57897      24.84634
     4  C(13)             -0.02369     -26.63595      -9.50437      -8.88480
     5  C(13)             -0.01187     -13.33858      -4.75954      -4.44927
     6  H(1)              -0.00865     -38.66247     -13.79573     -12.89641
     7  H(1)              -0.00982     -43.91384     -15.66955     -14.64808
     8  H(1)               0.03222     144.03419      51.39498      48.04463
     9  H(1)               0.00727      32.49188      11.59391      10.83812
    10  H(1)               0.00198       8.85355       3.15917       2.95323
    11  H(1)              -0.00041      -1.83404      -0.65443      -0.61177
    12  H(1)               0.00012       0.52312       0.18666       0.17449
    13  H(1)               0.00213       9.50923       3.39313       3.17194
    14  H(1)               0.00486      21.72808       7.75312       7.24771
 --------------------------------------------------------
       Center         ----  Spin Dipole Couplings  ----
                      3XX-RR        3YY-RR        3ZZ-RR
 --------------------------------------------------------
     1   Atom       -0.452017      0.244513      0.207504
     2   Atom        0.127735     -0.171720      0.043985
     3   Atom       -0.096364     -0.142319      0.238683
     4   Atom        0.007125     -0.010402      0.003277
     5   Atom       -0.005685      0.002057      0.003628
     6   Atom       -0.032808      0.040160     -0.007352
     7   Atom       -0.011581     -0.015193      0.026774
     8   Atom        0.014429     -0.007815     -0.006615
     9   Atom        0.000717      0.000201     -0.000918
    10   Atom        0.003403      0.003407     -0.006811
    11   Atom        0.002984      0.000221     -0.003205
    12   Atom       -0.000332      0.001617     -0.001285
    13   Atom        0.004471     -0.001118     -0.003353
    14   Atom        0.002675     -0.001221     -0.001454
 --------------------------------------------------------
                        XY            XZ            YZ
 --------------------------------------------------------
     1   Atom       -0.081688      0.091017     -0.699563
     2   Atom        0.007721     -0.018394     -0.174401
     3   Atom        0.002989     -0.063060      0.003139
     4   Atom        0.007590     -0.006540      0.000938
     5   Atom        0.001788     -0.000463     -0.001455
     6   Atom       -0.044572     -0.017960      0.020325
     7   Atom        0.021966      0.056084      0.007567
     8   Atom        0.004511     -0.004814     -0.001688
     9   Atom       -0.001477     -0.002681      0.002150
    10   Atom       -0.006840     -0.002244      0.003041
    11   Atom       -0.004095     -0.001299      0.000044
    12   Atom        0.003381     -0.000867     -0.001263
    13   Atom        0.003696      0.000875      0.000653
    14   Atom        0.002367     -0.002694     -0.001491
 --------------------------------------------------------


 ---------------------------------------------------------------------------------
              Anisotropic Spin Dipole Couplings in Principal Axis System
 ---------------------------------------------------------------------------------

       Atom             a.u.   MegaHertz   Gauss  10(-4) cm-1        Axes

              Baa    -0.4781   -64.162   -22.895   -21.402 -0.4672  0.5871  0.6610
     1 C(13)  Bbb    -0.4584   -61.512   -21.949   -20.518  0.8798  0.3828  0.2819
              Bcc     0.9365   125.675    44.844    41.921 -0.0875  0.7133 -0.6954
 
              Baa    -0.2689   -36.089   -12.877   -12.038  0.0056  0.8733  0.4871
     2 C(13)  Bbb     0.1135    15.235     5.436     5.082  0.8127 -0.2878  0.5067
              Bcc     0.1554    20.853     7.441     6.956 -0.5826 -0.3930  0.7114
 
              Baa    -0.1427   -19.147    -6.832    -6.387 -0.0972  0.9950 -0.0243
     3 C(13)  Bbb    -0.1075   -14.424    -5.147    -4.811  0.9790  0.1000  0.1774
              Bcc     0.2502    33.571    11.979    11.198 -0.1790  0.0065  0.9838
 
              Baa    -0.0139    -1.861    -0.664    -0.621 -0.3870  0.9008 -0.1969
     4 C(13)  Bbb     0.0005     0.062     0.022     0.021  0.4118  0.3600  0.8372
              Bcc     0.0134     1.799     0.642     0.600  0.8250  0.2429 -0.5102
 
              Baa    -0.0061    -0.816    -0.291    -0.272  0.9771 -0.2121  0.0149
     5 C(13)  Bbb     0.0014     0.189     0.068     0.063  0.1668  0.8082  0.5648
              Bcc     0.0047     0.627     0.224     0.209 -0.1318 -0.5495  0.8251
 
              Baa    -0.0553   -29.490   -10.523    -9.837  0.9057  0.3856  0.1759
     6 H(1)   Bbb    -0.0148    -7.909    -2.822    -2.638 -0.0255 -0.3647  0.9308
              Bcc     0.0701    37.399    13.345    12.475 -0.4230  0.8475  0.3205
 
              Baa    -0.0564   -30.098   -10.740   -10.040  0.7960 -0.3312 -0.5066
     7 H(1)   Bbb    -0.0147    -7.835    -2.796    -2.613  0.1480  0.9181 -0.3678
              Bcc     0.0711    37.932    13.535    12.653  0.5869  0.2178  0.7798
 
              Baa    -0.0091    -4.843    -1.728    -1.615 -0.0760  0.8854  0.4585
     8 H(1)   Bbb    -0.0073    -3.917    -1.398    -1.307  0.2783 -0.4227  0.8625
              Bcc     0.0164     8.759     3.126     2.922  0.9575  0.1932 -0.2143
 
              Baa    -0.0032    -1.711    -0.610    -0.571  0.4434 -0.3328  0.8322
     9 H(1)   Bbb    -0.0010    -0.554    -0.198    -0.185  0.6249  0.7805 -0.0209
              Bcc     0.0042     2.265     0.808     0.756  0.6426 -0.5293 -0.5540
 
              Baa    -0.0077    -4.090    -1.459    -1.364  0.0518 -0.2346  0.9707
    10 H(1)   Bbb    -0.0034    -1.795    -0.641    -0.599  0.7255  0.6768  0.1248
              Bcc     0.0110     5.885     2.100     1.963 -0.6863  0.6978  0.2053
 
              Baa    -0.0038    -2.030    -0.724    -0.677  0.3965  0.3942  0.8291
    11 H(1)   Bbb    -0.0022    -1.198    -0.428    -0.400  0.4277  0.7198 -0.5468
              Bcc     0.0061     3.229     1.152     1.077  0.8123 -0.5714 -0.1168
 
              Baa    -0.0029    -1.537    -0.548    -0.513  0.7909 -0.6096 -0.0530
    12 H(1)   Bbb    -0.0017    -0.897    -0.320    -0.299  0.1954  0.1696  0.9659
              Bcc     0.0046     2.434     0.869     0.812  0.5799  0.7743 -0.2533
 
              Baa    -0.0035    -1.887    -0.673    -0.629  0.0495 -0.3305  0.9425
    13 H(1)   Bbb    -0.0029    -1.543    -0.551    -0.515 -0.4553  0.8324  0.3158
              Bcc     0.0064     3.430     1.224     1.144  0.8889  0.4448  0.1092
 
              Baa    -0.0029    -1.561    -0.557    -0.521  0.2347  0.4343  0.8696
    14 H(1)   Bbb    -0.0023    -1.219    -0.435    -0.406 -0.5277  0.8083 -0.2612
              Bcc     0.0052     2.780     0.992     0.927  0.8164  0.3976 -0.4189
 

 ---------------------------------------------------------------------------------

 No NMR shielding tensors so no spin-rotation constants.
 Leave Link  601 at Tue Jun 12 13:27:08 2018, MaxMem=  671088640 cpu:      28.8
 (Enter /shared/apps/gaussian/G09_LINUX_LINDA/g09/l701.exe)
 Compute integral first derivatives.
 ... and contract with generalized density number  0.
 Leave Link  701 at Tue Jun 12 13:27:10 2018, MaxMem=  671088640 cpu:      21.7
 (Enter /shared/apps/gaussian/G09_LINUX_LINDA/g09/l702.exe)
 L702 exits ... SP integral derivatives will be done elsewhere.
 Leave Link  702 at Tue Jun 12 13:27:11 2018, MaxMem=  671088640 cpu:       0.2
 (Enter /shared/apps/gaussian/G09_LINUX_LINDA/g09/l703.exe)
 Compute integral first derivatives, UseDBF=F ICtDFT=           0.
 Integral derivatives from FoFDir, PRISM(SPDF).
 Calling FoFJK, ICntrl=      2127 FMM=F ISym2X=0 I1Cent= 0 IOpClX= 1 NMat=1 NMatS=1 NMatT=0.
 FoFCou: FMM=F IPFlag=           0 FMFlag=      100000 FMFlg1=         800
         NFxFlg=           0 DoJE=F BraDBF=F KetDBF=F FulRan=T
         Omega=  0.000000  0.000000  1.000000  0.000000  0.000000 ICntrl=    2127 IOpCl=  1
         NMat0=    1 NMatS0=    1 NMatT0=    0 NMatD0=    1 NMtDS0=    0 NMtDT0=    0
         I1Cent=           0 NGrid=           0.
 Symmetry not used in FoFCou.
 Leave Link  703 at Tue Jun 12 13:27:28 2018, MaxMem=  671088640 cpu:     168.9
 (Enter /shared/apps/gaussian/G09_LINUX_LINDA/g09/l716.exe)
 Dipole        =-9.30746204D-02-9.48333138D-02 3.50602738D-01
 ***** Axes restored to original set *****
 -------------------------------------------------------------------
 Center     Atomic                   Forces (Hartrees/Bohr)
 Number     Number              X              Y              Z
 -------------------------------------------------------------------
      1        6           0.022093154   -0.022036120    0.072399117
      2        6           0.038926634    0.013452841   -0.037912428
      3        6          -0.028346924   -0.025021523    0.027026897
      4        6          -0.012107490    0.013976506   -0.017444768
      5        6          -0.007195143   -0.008334022    0.022391756
      6        1          -0.014885025    0.020296108   -0.011744280
      7        1           0.001437525    0.009244914   -0.019597748
      8        1           0.006298145   -0.019188555   -0.013513436
      9        1           0.003139167    0.005118427   -0.016119190
     10        1          -0.005554508   -0.001862488    0.002792904
     11        1           0.008105459    0.005180399   -0.001393613
     12        1          -0.007935970    0.015223974   -0.000913232
     13        1           0.001928463    0.003255809    0.010200027
     14        1          -0.005903487   -0.009306270   -0.016172006
 -------------------------------------------------------------------
 Cartesian Forces:  Max     0.072399117 RMS     0.019420668
 Leave Link  716 at Tue Jun 12 13:27:28 2018, MaxMem=  671088640 cpu:       0.4
 (Enter /shared/apps/gaussian/G09_LINUX_LINDA/g09/l103.exe)

 GradGradGradGradGradGradGradGradGradGradGradGradGradGradGradGradGradGrad
 Berny optimization.
 Internal  Forces:  Max     0.042570914 RMS     0.015031070
 Search for a local minimum.
 Step number   1 out of a maximum of   64
 All quantities printed in internal units (Hartrees-Bohrs-Radians)
 Swaping is turned off.
 Second derivative matrix not updated -- first step.
 ITU=  0
     Eigenvalues ---    0.00756   0.00764   0.00878   0.01906   0.02473
     Eigenvalues ---    0.02878   0.06183   0.06848   0.07135   0.07858
     Eigenvalues ---    0.08038   0.15999   0.16000   0.16000   0.16000
     Eigenvalues ---    0.16000   0.16000   0.16000   0.16000   0.16000
     Eigenvalues ---    0.19279   0.20718   0.22000   0.31551   0.31574
     Eigenvalues ---    0.31575   0.31696   0.32048   0.32301   0.32361
     Eigenvalues ---    0.33249   0.33286   0.33520   0.33950   0.34339
     Eigenvalues ---    0.57121
 Quadratic step=2.727D+00 exceeds max=3.000D-01 adjusted using Lamda=-2.518D-01.
 Angle between NR and scaled steps=  33.45 degrees.
 Angle between quadratic step and forces=  18.85 degrees.
 Linear search not attempted -- option 19 set.
 Iteration  1 RMS(Cart)=  0.07176871 RMS(Int)=  0.00374363
 Iteration  2 RMS(Cart)=  0.00402436 RMS(Int)=  0.00086672
 Iteration  3 RMS(Cart)=  0.00001733 RMS(Int)=  0.00086666
 Iteration  4 RMS(Cart)=  0.00000004 RMS(Int)=  0.00086666
 Variable       Old X    -DE/DX   Delta X   Delta X   Delta X     New X
                                 (Linear)    (Quad)   (Total)
    R1        2.81851  -0.00620   0.00000  -0.01060  -0.01060   2.80792
    R2        2.11403  -0.01771   0.00000  -0.03115  -0.03115   2.08288
    R3        2.11629  -0.01147   0.00000  -0.02021  -0.02021   2.09608
    R4        2.53294   0.04257   0.00000   0.05173   0.05173   2.58466
    R5        2.06763  -0.00008   0.00000  -0.00014  -0.00014   2.06748
    R6        2.83489   0.01535   0.00000   0.02667   0.02667   2.86157
    R7        2.83596   0.01212   0.00000   0.02109   0.02109   2.85705
    R8        2.11630  -0.01661   0.00000  -0.02927  -0.02927   2.08702
    R9        2.07415  -0.00539   0.00000  -0.00912  -0.00912   2.06503
   R10        2.08147  -0.00615   0.00000  -0.01047  -0.01047   2.07100
   R11        2.10757  -0.01718   0.00000  -0.03003  -0.03003   2.07754
   R12        2.08616  -0.00931   0.00000  -0.01594  -0.01594   2.07023
   R13        2.11673  -0.01213   0.00000  -0.02138  -0.02138   2.09534
    A1        1.92579   0.01427   0.00000   0.03993   0.03773   1.96352
    A2        1.85313   0.03533   0.00000   0.09167   0.08942   1.94255
    A3        1.82347   0.00191   0.00000   0.01774   0.01351   1.83698
    A4        2.09127   0.02500   0.00000   0.05299   0.05299   2.14425
    A5        2.07171  -0.01603   0.00000  -0.03507  -0.03507   2.03664
    A6        2.12014  -0.00895   0.00000  -0.01786  -0.01786   2.10228
    A7        1.99504   0.02111   0.00000   0.05198   0.05200   2.04705
    A8        1.99813  -0.00180   0.00000   0.00045   0.00008   1.99822
    A9        2.00068  -0.00999   0.00000  -0.01768  -0.01829   1.98239
   A10        1.82245   0.00587   0.00000   0.01503   0.01495   1.83740
   A11        1.97007   0.00181   0.00000   0.00350   0.00349   1.97356
   A12        1.94424   0.00364   0.00000   0.00884   0.00879   1.95303
   A13        1.91990  -0.00466   0.00000  -0.01163  -0.01166   1.90824
   A14        1.84338  -0.00021   0.00000   0.00153   0.00139   1.84477
   A15        1.95466  -0.00594   0.00000  -0.01570  -0.01570   1.93896
   A16        1.94411  -0.00182   0.00000  -0.00385  -0.00400   1.94011
   A17        1.96060  -0.00453   0.00000  -0.01218  -0.01217   1.94844
   A18        1.82852   0.02102   0.00000   0.05160   0.05153   1.88004
   A19        1.87602   0.00137   0.00000   0.00233   0.00227   1.87829
   A20        1.89084  -0.00418   0.00000  -0.00748  -0.00773   1.88311
   A21        1.96367  -0.01199   0.00000  -0.03051  -0.03041   1.93326
    D1       -1.87046   0.01855   0.00000   0.06247   0.06415  -1.80631
    D2        1.25844   0.02028   0.00000   0.06880   0.07045   1.32889
    D3        2.44657  -0.00883   0.00000  -0.02485  -0.02650   2.42006
    D4       -0.70772  -0.00710   0.00000  -0.01852  -0.02021  -0.72792
    D5       -1.42510   0.03210   0.00000   0.11945   0.11983  -1.30527
    D6        2.50036   0.02641   0.00000   0.08933   0.08897   2.58932
    D7        1.72954   0.03036   0.00000   0.11305   0.11341   1.84295
    D8       -0.62818   0.02468   0.00000   0.08293   0.08254  -0.54564
    D9       -1.10574  -0.00451   0.00000  -0.01999  -0.02000  -1.12574
   D10        0.97924  -0.00549   0.00000  -0.02272  -0.02276   0.95647
   D11       -3.08728  -0.00907   0.00000  -0.03386  -0.03397  -3.12125
   D12        1.25083   0.00495   0.00000   0.01850   0.01860   1.26943
   D13       -2.94738   0.00397   0.00000   0.01577   0.01584  -2.93155
   D14       -0.73071   0.00039   0.00000   0.00463   0.00462  -0.72609
   D15       -0.50433   0.00725   0.00000   0.02302   0.02271  -0.48162
   D16       -2.61011   0.00994   0.00000   0.03127   0.03098  -2.57913
   D17        1.53621   0.01345   0.00000   0.04184   0.04175   1.57796
   D18       -2.85949  -0.01261   0.00000  -0.03890  -0.03875  -2.89824
   D19        1.31791  -0.00992   0.00000  -0.03065  -0.03048   1.28743
   D20       -0.81895  -0.00641   0.00000  -0.02008  -0.01971  -0.83866
         Item               Value     Threshold  Converged?
 Maximum Force            0.042571     0.000002     NO 
 RMS     Force            0.015031     0.000001     NO 
 Maximum Displacement     0.212290     0.000006     NO 
 RMS     Displacement     0.071631     0.000004     NO 
 Predicted change in Energy=-2.713506D-02
 GradGradGradGradGradGradGradGradGradGradGradGradGradGradGradGradGradGrad

 Leave Link  103 at Tue Jun 12 13:27:32 2018, MaxMem=  671088640 cpu:      45.6
 (Enter /shared/apps/gaussian/G09_LINUX_LINDA/g09/l202.exe)
                          Input orientation:                          
 ---------------------------------------------------------------------
 Center     Atomic      Atomic             Coordinates (Angstroms)
[...]
 -------------------------------------------------------------------
 Cartesian Forces:  Max     0.000001836 RMS     0.000000705
 Leave Link  716 at Tue Jun 12 15:55:29 2018, MaxMem=  671088640 cpu:       8.0
 (Enter /shared/apps/gaussian/G09_LINUX_LINDA/g09/l103.exe)

 GradGradGradGradGradGradGradGradGradGradGradGradGradGradGradGradGradGrad
 Berny optimization.
 Red2BG is reusing G-inverse.
 Internal  Forces:  Max     0.000000088 RMS     0.000000026
 Search for a local minimum.
 Step number   1 out of a maximum of    2
 All quantities printed in internal units (Hartrees-Bohrs-Radians)
 Swaping is turned off.
 Second derivative matrix not updated -- analytic derivatives used.
 ITU=  0
     Eigenvalues ---    0.00046   0.00240   0.01248   0.01607   0.01887
     Eigenvalues ---    0.02414   0.03080   0.05457   0.05591   0.05754
     Eigenvalues ---    0.05934   0.10330   0.11075   0.11965   0.12255
     Eigenvalues ---    0.13134   0.14046   0.14192   0.14340   0.14461
     Eigenvalues ---    0.17962   0.20256   0.25842   0.31104   0.32688
     Eigenvalues ---    0.32989   0.33090   0.33317   0.34393   0.34872
     Eigenvalues ---    0.35088   0.35214   0.35779   0.36983   0.37834
     Eigenvalues ---    0.55051
 Angle between quadratic step and forces=  83.12 degrees.
 Linear search not attempted -- option 19 set.
 Iteration  1 RMS(Cart)=  0.00000250 RMS(Int)=  0.00000000
 Iteration  2 RMS(Cart)=  0.00000000 RMS(Int)=  0.00000000
 Variable       Old X    -DE/DX   Delta X   Delta X   Delta X     New X
                                 (Linear)    (Quad)   (Total)
    R1        2.59929   0.00000   0.00000   0.00000   0.00000   2.59929
    R2        2.04033   0.00000   0.00000   0.00000   0.00000   2.04033
    R3        2.03960   0.00000   0.00000   0.00000   0.00000   2.03960
    R4        2.62259   0.00000   0.00000   0.00000   0.00000   2.62259
    R5        2.05227   0.00000   0.00000   0.00000   0.00000   2.05227
    R6        2.82249   0.00000   0.00000   0.00000   0.00000   2.82249
    R7        2.82393   0.00000   0.00000   0.00000   0.00000   2.82393
    R8        2.06717   0.00000   0.00000   0.00000   0.00000   2.06717
    R9        2.05252   0.00000   0.00000   0.00000   0.00000   2.05252
   R10        2.06717   0.00000   0.00000   0.00000   0.00000   2.06717
   R11        2.05661   0.00000   0.00000   0.00000   0.00000   2.05661
   R12        2.06811   0.00000   0.00000   0.00000   0.00000   2.06811
   R13        2.06811   0.00000   0.00000   0.00000   0.00000   2.06811
    A1        2.14026   0.00000   0.00000   0.00000   0.00000   2.14026
    A2        2.10205   0.00000   0.00000   0.00000   0.00000   2.10205
    A3        2.04087   0.00000   0.00000   0.00000   0.00000   2.04087
    A4        2.22544   0.00000   0.00000   0.00000   0.00000   2.22544
    A5        2.03634   0.00000   0.00000   0.00000   0.00000   2.03634
    A6        2.02140   0.00000   0.00000   0.00000   0.00000   2.02140
    A7        2.15598   0.00000   0.00000   0.00000   0.00000   2.15599
    A8        2.10961   0.00000   0.00000   0.00000   0.00000   2.10961
    A9        2.01759   0.00000   0.00000   0.00000   0.00000   2.01759
   A10        1.92624   0.00000   0.00000   0.00000   0.00000   1.92624
   A11        1.97555   0.00000   0.00000   0.00000   0.00000   1.97555
   A12        1.92624   0.00000   0.00000   0.00000   0.00000   1.92624
   A13        1.88705   0.00000   0.00000   0.00000   0.00000   1.88705
   A14        1.85729   0.00000   0.00000   0.00000   0.00000   1.85729
   A15        1.88705   0.00000   0.00000   0.00000   0.00000   1.88705
   A16        1.95437   0.00000   0.00000   0.00000   0.00000   1.95437
   A17        1.93466   0.00000   0.00000   0.00000   0.00000   1.93466
   A18        1.93466   0.00000   0.00000   0.00000   0.00000   1.93466
   A19        1.89098   0.00000   0.00000   0.00000   0.00000   1.89098
   A20        1.89098   0.00000   0.00000   0.00000   0.00000   1.89098
   A21        1.85466   0.00000   0.00000   0.00000   0.00000   1.85466
    D1        0.00000   0.00000   0.00000   0.00000   0.00000   0.00000
    D2       -3.14159   0.00000   0.00000   0.00000   0.00000  -3.14159
    D3       -3.14159   0.00000   0.00000   0.00000   0.00000   3.14159
    D4        0.00000   0.00000   0.00000   0.00000   0.00000   0.00000
    D5        0.00000   0.00000   0.00000   0.00000   0.00000   0.00000
    D6       -3.14159   0.00000   0.00000   0.00000   0.00000  -3.14159
    D7        3.14159   0.00000   0.00000   0.00000   0.00000  -3.14159
    D8        0.00000   0.00000   0.00000   0.00000   0.00000   0.00000
    D9       -2.11757   0.00000   0.00000  -0.00001  -0.00001  -2.11757
   D10        0.00001   0.00000   0.00000  -0.00001  -0.00001   0.00000
   D11        2.11758   0.00000   0.00000  -0.00001  -0.00001   2.11758
   D12        1.02402   0.00000   0.00000  -0.00001  -0.00001   1.02402
   D13       -3.14159   0.00000   0.00000   0.00000   0.00000  -3.14159
   D14       -1.02401   0.00000   0.00000   0.00000   0.00000  -1.02402
   D15        0.00000   0.00000   0.00000   0.00000   0.00000   0.00000
   D16       -2.11398   0.00000   0.00000   0.00000   0.00000  -2.11398
   D17        2.11398   0.00000   0.00000   0.00000   0.00000   2.11398
   D18       -3.14159   0.00000   0.00000   0.00000   0.00000  -3.14159
   D19        1.02762   0.00000   0.00000   0.00000   0.00000   1.02761
   D20       -1.02761   0.00000   0.00000   0.00000   0.00000  -1.02761
         Item               Value     Threshold  Converged?
 Maximum Force            0.000000     0.000002     YES
 RMS     Force            0.000000     0.000001     YES
 Maximum Displacement     0.000009     0.000006     NO 
 RMS     Displacement     0.000002     0.000004     YES
 Predicted change in Energy=-1.581769D-13
 GradGradGradGradGradGradGradGradGradGradGradGradGradGradGradGradGradGrad

 Leave Link  103 at Tue Jun 12 15:55:32 2018, MaxMem=  671088640 cpu:      29.7
 (Enter /shared/apps/gaussian/G09_LINUX_LINDA/g09/l9999.exe)

 Test job not archived.
 1\1\GINC-COMPUTE-3-041\Freq\UM062X\6-311+G(2df,2p)\C5H9(2)\ROOT\12-Jun
 -2018\0\\#P Geom=AllCheck Guess=TCheck SCRF=Check Test GenChk UM062X/6
 -311+G(2df,2p) Freq\\Gaussian input prepared by ASE\\0,2\C,2.177488411
 6,0.3128279589,-0.1857601501\C,1.0769594378,-0.5084579814,-0.106457728
 7\C,-0.2567899661,-0.1494978131,-0.2416884134\C,-0.7122817284,1.248237
 7404,-0.5056907474\C,-1.3412466041,-1.1712448676,-0.1272509554\H,2.100
 0670209,1.3736476472,-0.3712590838\H,3.170872316,-0.0905698788,-0.0618
 010122\H,1.2666101807,-1.5607257925,0.0838002991\H,-1.3831265558,1.586
 5843792,0.2893571057\H,0.1065481141,1.9578054335,-0.5815271879\H,-1.28
 75742988,1.2920169334,-1.4350635136\H,-0.9446361605,-2.1663673863,0.06
 47154434\H,-1.9386888882,-1.2093831501,-1.0433898584\H,-2.0342012793,-
 0.9149732227,0.6801158029\\Version=EM64L-G09RevB.01\State=2-A\HF=-195.
 852561\S2=0.778193\S2-1=0.\S2A=0.750182\RMSD=1.312e-09\RMSF=7.050e-07\
 ZeroPoint=0.1233803\Thermal=0.1299667\Dipole=-0.3135822,0.0067234,-0.0
 185258\DipoleDeriv=-0.0364761,0.001187,0.0163592,-0.0792491,0.0363284,
 -0.0678776,0.0300987,-0.0634203,-0.3228266,-0.178507,-0.1187696,0.0195
 229,-0.0214149,-0.031413,-0.0239553,0.0028934,-0.0293504,-0.1595284,0.
 3943726,0.1026925,0.011064,-0.0117102,0.2074618,-0.0568955,0.0306041,-
 0.0505556,-0.111482,-0.0755645,0.0084011,-0.0121623,-0.0466325,-0.0827
 538,0.0317095,-0.0027594,0.034759,0.111917,-0.03057,-0.0643738,0.00294
 12,0.0371123,-0.0093538,0.0232613,-0.0143943,0.0176373,0.1109703,0.038
 543,0.0401302,-0.0129027,-0.0104065,-0.0655789,0.0358506,-0.00427,0.03
 86513,0.1408329,-0.0506267,0.0142035,-0.0135995,0.063487,0.0333489,0.0
 236141,-0.022018,0.0208829,0.1462053,0.0488257,0.0131637,-0.0069051,0.
 0279426,-0.1041355,0.0420302,-0.0094295,0.0412113,0.1252875,-0.0167918
 ,0.0526137,0.0725923,0.0835387,0.0284447,0.0038318,0.1021097,-0.052488
 ,-0.0276785,-0.0174623,-0.109497,0.0138758,-0.0363552,-0.0245687,0.014
 0859,0.001381,0.0100328,0.0680468,0.0041292,0.0215199,-0.081,0.0467889
 ,0.038771,-0.0233759,-0.1201165,0.0298297,-0.0589253,0.0229719,0.08481
 7,-0.0172011,0.0042011,-0.0983622,0.0293206,-0.0034302,0.0337881,0.065
 959,-0.0406207,-0.0346335,-0.0629127,-0.0529446,0.0438853,0.0271385,-0
 .1225805,-0.0149215,-0.0631699,-0.0622231,-0.0114547,0.0703279,-0.0043
 577,0.0279258,-0.0587383,0.1319114,-0.0160568,-0.0256081\Polar=90.4408
 35,4.9657762,60.5952789,1.5553562,-2.035506,47.5019846\PG=C01 [X(C5H9)
 ]\NImag=0\\0.66768062,0.01279161,0.63905267,0.03022428,-0.09429911,0.1
 0064537,-0.20531883,-0.06648251,0.00255556,0.54970601,-0.14013270,-0.2
 1487818,0.02099489,-0.00761641,0.67268424,0.01513646,0.02507645,-0.049
 95343,0.02502210,-0.09454717,0.13920067,-0.10180017,-0.05096603,0.0026
 5493,-0.23198986,0.11420689,-0.02948045,0.63066600,-0.00174136,0.02809
 306,-0.00363307,0.03160276,-0.13762182,0.01636839,-0.02213496,0.536710
 73,-0.00575366,-0.00636104,0.00815726,-0.01536994,0.02094616,-0.056481
 48,0.03004767,-0.06614221,0.16964988,0.00196267,0.00160091,-0.00002715
 ,-0.00994920,0.02999415,-0.00603483,-0.09806736,0.03319904,-0.00750497
 ,0.56599644,-0.00426981,-0.00213182,-0.00029644,0.01577422,-0.00594626
 ,0.00299936,0.03253071,-0.20957229,0.02650293,0.04701763,0.51866721,0.
 00097565,0.00002888,-0.00243289,-0.00360581,0.00378740,0.00564806,-0.0
 0739084,0.02654009,-0.06991711,-0.00550096,0.00289120,0.51954328,0.001
 32514,0.00502654,-0.00111243,-0.03414515,-0.02450997,0.00182086,-0.153
 40919,-0.06573319,0.00618308,0.00952744,0.00459296,-0.00040142,0.52111
 713,0.00524054,0.00103806,0.00112179,-0.00336804,0.00626449,0.00020338
 ,-0.07073041,-0.15625169,0.01211820,-0.02369751,-0.02690437,0.00372897
 ,-0.04638003,0.56166263,-0.00114897,0.00110994,0.00565170,-0.00179066,
 -0.00096826,0.00861392,0.00703677,0.01239513,-0.06409141,0.00443114,0.
 00529669,0.00195390,0.00803664,-0.00984751,0.52118837,-0.06085561,0.02
 303270,-0.00586424,0.01113646,-0.02357422,0.00446597,-0.00022843,0.000
 59847,0.00007976,-0.00106043,-0.00019175,0.00000850,-0.00009582,0.0002
 4714,-0.00002393,0.05544514,0.02164790,-0.33369776,0.05375481,0.001713
 38,-0.01525770,0.00325032,0.00245549,-0.00083522,-0.00032125,0.0004730
 7,-0.00022105,-0.00004238,-0.00025595,0.00000070,-0.00008704,-0.023756
 71,0.35458652,-0.00562769,0.05383157,-0.03553987,0.00014636,0.00184893
 ,0.00290653,-0.00023746,-0.00042416,-0.00345316,-0.00010508,-0.0000792
 4,-0.00061498,0.00006201,-0.00005916,-0.00041226,0.00627454,-0.0592475
 7,0.02591850,-0.30349802,0.10185603,-0.03287454,-0.01815799,0.01179297
 ,-0.00326955,-0.00094173,-0.00369788,0.00026559,0.00024620,-0.00032016
 ,0.00006849,-0.00067924,0.00054876,-0.00012732,0.00175261,-0.00129871,
 0.00015179,0.32072557,0.10541727,-0.10120078,0.01898754,-0.01761293,0.
 01089153,-0.00206964,-0.00400127,-0.00224730,0.00112970,0.00006386,-0.
 00069816,0.00012231,-0.00057860,0.00052538,-0.00013432,0.02492434,-0.0
 0599928,0.00292136,-0.10860029,0.09704198,-0.03348285,0.01879018,-0.02
 931011,0.00175353,-0.00044002,0.00466199,0.00031741,0.00114652,0.00548
 599,0.00000289,0.00010102,-0.00001999,0.00006525,-0.00007185,-0.000057
 35,-0.00432761,0.00146814,0.00252610,0.03543983,-0.01986688,0.02132849
 ,0.00703829,-0.02582221,0.00457021,-0.06716993,0.04459504,-0.00902773,
 -0.00397608,0.02998874,-0.00552945,-0.00438833,-0.00039898,-0.00059206
 ,0.00036452,0.00230545,-0.00012234,-0.00342262,-0.00287483,-0.00012929
 ,0.00082629,0.00030498,0.00026408,0.07143981,0.00330184,-0.01763078,0.
 00390599,0.04716243,-0.30721086,0.04796358,0.00135415,-0.00983776,0.00
 233024,0.00066702,0.00187293,0.00100245,-0.00179970,0.00080778,-0.0010
 1226,-0.00285880,-0.00010258,0.00118666,-0.00007771,0.00093544,-0.0009
 9752,-0.04800817,0.33015454,-0.00040477,0.00229198,0.00375029,-0.00946
 625,0.04782132,-0.05041986,-0.00063813,0.00391712,0.00266000,-0.000774
 14,0.00094337,0.00732093,0.00057890,-0.00078477,-0.00436814,-0.0001320
 3,0.00118577,0.00756185,0.00032945,-0.00097631,-0.00469394,0.01059460,
 -0.05423290,0.03809425,-0.00066181,-0.00047942,-0.00011780,0.00187287,
 0.00172734,0.00021663,-0.01036308,0.00778455,0.00522629,-0.14073630,0.
 04269297,0.11931179,0.00018317,-0.00074915,-0.00031496,0.00021687,0.00
 017738,0.00017815,-0.00003618,0.00015477,0.00005814,-0.00032752,0.0001
 6091,-0.00049737,0.15293929,0.00058404,0.00049131,-0.00065926,-0.00261
 191,-0.00366284,0.00024805,0.02205900,-0.01227898,-0.02074218,0.045963
 45,-0.06863585,-0.05938747,0.00042675,0.00139208,-0.00016250,0.0001699
 4,0.00025879,0.00008229,0.00003379,0.00021369,-0.00006921,0.00064600,-
 0.00002949,0.00151931,-0.05415864,0.07570107,0.00027370,0.00027733,-0.
 00001148,-0.00132898,0.00075316,-0.00083438,-0.00430707,0.00138485,0.0
 0749029,0.11765027,-0.05568048,-0.18285951,-0.00025607,-0.00008534,0.0
 0042812,-0.00000185,-0.00004783,0.00006334,-0.00000013,0.00000546,-0.0
 0002214,-0.00019735,-0.00003022,-0.00049898,-0.12898449,0.06171674,0.1
 9949771,-0.00153682,0.00097912,-0.00023433,-0.00059042,-0.00114594,0.0
 0018250,0.01162488,0.00635217,-0.00031797,-0.20654750,-0.13574649,0.01
 431864,-0.00029856,0.00181151,-0.00037854,-0.00307280,0.00174057,-0.00
 052026,0.00008964,0.00008972,-0.00000580,0.00020039,-0.00015306,0.0000
 3589,-0.01409257,-0.01151510,-0.00031227,0.22596268,0.00001384,-0.0000
 5386,-0.00004580,-0.00116233,0.00125635,-0.00033907,-0.02558633,-0.018
 41999,0.00134966,-0.13253363,-0.16185945,0.01236534,0.00380323,-0.0047
 7952,0.00118923,0.00103813,0.00082307,0.00007919,-0.00003362,0.0005831
 8,-0.00011554,-0.00022745,0.00014670,-0.00003346,0.00817505,0.00685344
 ,0.00033646,0.14589294,0.17555089,-0.00006944,0.00000770,-0.00033164,0
 .00018531,-0.00033815,-0.00028344,0.00513780,0.00311939,-0.00246726,0.
 01376982,0.01218734,-0.04779915,-0.00071877,0.00107882,0.00072437,-0.0
 0040027,0.00011811,0.00090748,0.00001527,-0.00010871,-0.00006286,0.000
 04859,-0.00002933,0.00003234,0.01790516,0.01640478,-0.00108584,-0.0148
 7257,-0.01428284,0.04622855,-0.00063615,-0.00038120,0.00020083,0.00170
 695,0.00162043,-0.00051558,-0.00955391,0.00517884,-0.00891586,-0.11451
 935,-0.00150193,-0.11698920,0.00011911,-0.00059479,0.00051173,0.000240
 34,0.00010865,-0.00020858,-0.00002643,0.00013083,-0.00010698,-0.000385
 90,0.00031334,0.00039997,0.01047098,-0.00079642,0.01752120,-0.01208595
 ,0.00160649,-0.02113262,0.12418785,0.00038565,0.00055595,0.00050960,-0
 .00199032,-0.00367239,0.00052006,0.01934105,-0.00355751,0.02688663,0.0
 0171606,-0.04514585,0.00901022,0.00047987,0.00136138,-0.00010479,0.000
 17520,0.00023155,-0.00012561,0.00002868,0.00021059,-0.00001037,0.00083
 521,-0.00052782,-0.00141338,-0.00550520,-0.00017869,-0.00822105,-0.009
 09882,0.00058461,-0.01849079,-0.00574313,0.05043654,-0.00050328,-0.000
 52840,-0.00010182,0.00238802,0.00045551,-0.00065893,-0.00424001,0.0031
 8379,-0.00204034,-0.11643609,0.00494380,-0.23256734,0.00006840,-0.0003
 0669,0.00052293,-0.00003868,0.00000123,0.00006713,-0.00001058,-0.00007
 267,-0.00002879,-0.00007205,0.00008033,0.00005773,-0.01275181,0.000125
 64,-0.02202863,0.00227699,-0.00073823,0.00317646,0.12895923,-0.0076202
 7,0.25351448,-0.00011930,-0.00008318,0.00001429,0.00146704,-0.00159194
 ,0.00038518,0.00960553,-0.02244261,0.00447560,-0.00341985,-0.00254429,
 0.00018928,-0.08606564,0.09430151,-0.01823776,0.00010974,0.00001476,0.
 00000145,0.00004885,0.00003852,-0.00000417,-0.00038989,0.00028277,-0.0
 0008822,-0.00005203,-0.00003256,-0.00016637,0.00035792,-0.00128884,0.0
 0020734,-0.00009949,0.00006489,0.00012588,0.09267323,-0.00082446,0.000
 15044,-0.00009202,0.00353909,0.00101668,-0.00007601,0.00918670,-0.0206
 2202,0.00369381,-0.00472821,-0.00169486,0.00019956,0.09049676,-0.27124
 202,0.04320993,0.00018491,0.00019821,-0.00001710,-0.00000628,-0.000001
 62,0.00000085,-0.00099449,0.00094903,-0.00016079,-0.00004431,0.0004174
 6,-0.00005787,0.00054473,-0.00120423,0.00033654,0.00004773,0.00028426,
 0.00002010,-0.09840639,0.29517051,0.00014092,-0.00005094,-0.00010428,-
 0.00049130,-0.00036036,-0.00054211,-0.00092733,0.00194100,-0.00236133,
 0.00056232,0.00032057,0.00098363,-0.01758783,0.04342077,-0.05603749,-0
 .00002762,-0.00002653,0.00004113,0.00000348,0.00000334,0.00000504,0.00
 012997,-0.00009001,0.00035293,-0.00029483,0.00039537,0.00015154,-0.000
 10586,0.00023493,0.00054321,0.00025929,-0.00043152,0.00033219,0.019415
 05,-0.04807454,0.05495029,-0.00181847,-0.00034877,0.00099478,0.0006384
 2,-0.00273757,0.00020039,-0.01979152,-0.00233401,-0.01856856,0.0004478
 1,0.00124224,0.00014752,-0.11556809,-0.00166923,-0.12069903,-0.0000776
 2,-0.00007947,-0.00003893,-0.00017769,-0.00015702,0.00004911,0.0001286
 8,-0.00029123,-0.00066373,0.00009947,-0.00003004,0.00011864,-0.0000365
 1,0.00022955,0.00038858,0.00048135,-0.00063179,0.00029776,-0.00666347,
 -0.00101625,-0.00937233,0.13135408,-0.00131724,0.00013792,0.00039471,0
 .00082227,-0.00193799,0.00025110,-0.01303136,0.00005627,-0.01797939,0.
 00017084,0.00111584,-0.00021508,-0.00433418,-0.04942639,-0.00677286,0.
 00000279,-0.00001174,-0.00009439,-0.00011450,-0.00012078,0.00011466,-0
 .00015730,0.00023351,-0.00005645,-0.00006806,-0.00008218,-0.00002735,0
 .00013158,0.00029093,0.00028160,0.00005104,-0.00048687,0.00049308,0.01
 481611,0.00238767,0.02518474,0.00713364,0.04852547,-0.00035580,-0.0004
 1929,-0.00021316,0.00174543,-0.00004960,-0.00084480,0.00012193,-0.0007
 6635,0.00585668,0.00017783,-0.00007653,0.00042961,-0.11730863,-0.00352
 978,-0.22797273,-0.00005306,-0.00001654,0.00002812,0.00002101,-0.00001
 515,0.00009015,0.00012892,-0.00004297,0.00004504,-0.00005138,0.0000020
 0,-0.00025961,0.00010109,-0.00009846,0.00020844,-0.00009321,-0.0004432
 8,0.00000211,-0.00119572,-0.00009091,-0.00365056,0.12975879,0.00595466
 ,0.24884032,-0.00176153,-0.00072358,-0.00098438,0.00079363,-0.00262807
 ,0.00089804,-0.02177508,0.00337945,0.01568242,0.00050776,0.00112267,-0
 .00053958,-0.14237482,0.04273426,0.12282724,-0.00008781,-0.00006554,0.
 00005299,-0.00017186,-0.00017418,-0.00002283,0.00006230,-0.00005379,0.
 00072583,0.00048683,-0.00073829,-0.00000922,0.00002563,0.00007296,-0.0
 0046422,0.00010061,-0.00005735,-0.00006376,-0.00745263,0.00202048,0.00
 829609,0.01098356,-0.00410565,-0.01299719,0.16066342,-0.00109714,0.000
 07378,-0.00064363,0.00023028,-0.00192525,0.00015118,-0.01468364,0.0063
 8453,0.01658874,0.00009333,0.00115398,-0.00003148,0.03876551,-0.064448
 51,-0.04411137,0.00000789,0.00002648,0.00009723,-0.00011108,-0.0001338
 9,-0.00004998,-0.00019201,0.00023936,-0.00002080,0.00013182,-0.0004598
 2,-0.00032386,0.00011707,0.00022788,-0.00028444,-0.00003987,-0.0000957
 5,-0.00003721,0.01687125,-0.00580953,-0.02246681,0.00068996,-0.0006816
 9,-0.00040780,-0.04078337,0.06544843,0.00059545,0.00024475,-0.00020595
 ,-0.00174336,0.00009620,-0.00101274,0.00190479,0.00096953,0.00151200,-
 0.00021105,-0.00005360,0.00033156,0.12057001,-0.04698685,-0.18614393,0
 .00004052,0.00001076,0.00000010,-0.00001277,0.00007398,0.00009742,-0.0
 0006609,-0.00003404,0.00010557,0.00011648,0.00052643,-0.00003043,-0.00
 016752,0.00009860,0.00020935,0.00010977,-0.00006543,-0.00024719,-0.005
 12183,0.00110845,0.00533580,0.01738703,-0.00752903,-0.02255959,-0.1334
 0142,0.05154024,0.20260804\\0.00000016,-0.00000127,0.00000025,-0.00000
 031,-0.00000064,0.00000006,-0.00000005,0.00000007,-0.00000003,0.000000
 66,0.00000048,-0.00000015,-0.00000069,0.00000082,-0.00000018,0.0000008
 2,-0.00000119,0.00000025,-0.00000008,-0.00000184,0.00000030,-0.0000009
 5,-0.00000074,0.00000009,0.00000087,0.00000079,-0.00000007,0.00000122,
 -0.00000007,0.00000011,0.00000088,0.00000079,-0.00000004,-0.00000129,0
 .00000050,-0.00000016,-0.00000061,0.00000115,-0.00000023,-0.00000064,0
 .00000115,-0.00000021\\\@


 THERE'S A SUCKER BORN EVERY MINUTE

              -- PHINEAS TAYLOR (P.T.) BARNUM
 Job cpu time:  0 days  2 hours 36 minutes 26.0 seconds.
 File lengths (MBytes):  RWF=    181 Int=      0 D2E=      0 Chk=      7 Scr=      1
 Normal termination of Gaussian 09 at Tue Jun 12 15:55:32 2018.
