 Entering Gaussian System, Link 0=/shared/apps/gaussian/G09_LINUX_LINDA/g09/g09
 Input=/gss_gpfs_scratch/harms.n/QMscratch/MHAJPDPJQMAIIY-UHFFFAOYSA.gjf
 Output=/gss_gpfs_scratch/harms.n/QMscratch/MHAJPDPJQMAIIY-UHFFFAOYSA.log
 Initial command:
 /shared/apps/gaussian/G09_LINUX_LINDA/g09/l1.exe /home/harms.n/Code/RMG-Py/scripts/Gau-9354.inp -scrdir=/home/harms.n/Code/RMG-Py/scripts/
 Entering Link 1 = /shared/apps/gaussian/G09_LINUX_LINDA/g09/l1.exe PID=      9374.
  
 Copyright (c) 1988,1990,1992,1993,1995,1998,2003,2009,2010,
            Gaussian, Inc.  All Rights Reserved.
  
 This is part of the Gaussian(R) 09 program.  It is based on
 the Gaussian(R) 03 system (copyright 2003, Gaussian, Inc.),
 the Gaussian(R) 98 system (copyright 1998, Gaussian, Inc.),
 the Gaussian(R) 94 system (copyright 1995, Gaussian, Inc.),
 the Gaussian 92(TM) system (copyright 1992, Gaussian, Inc.),
 the Gaussian 90(TM) system (copyright 1990, Gaussian, Inc.),
 the Gaussian 88(TM) system (copyright 1988, Gaussian, Inc.),
 the Gaussian 86(TM) system (copyright 1986, Carnegie Mellon
 University), and the Gaussian 82(TM) system (copyright 1983,
 Carnegie Mellon University). Gaussian is a federally registered
 trademark of Gaussian, Inc.
  
 This software contains proprietary and confidential information,
 including trade secrets, belonging to Gaussian, Inc.
  
 This software is provided under written license and may be
 used, copied, transmitted, or stored only in accord with that
 written license.
  
 The following legend is applicable only to US Government
 contracts under FAR:
  
                    RESTRICTED RIGHTS LEGEND
  
 Use, reproduction and disclosure by the US Government is
 subject to restrictions as set forth in subparagraphs (a)
 and (c) of the Commercial Computer Software - Restricted
 Rights clause in FAR 52.227-19.
  
 Gaussian, Inc.
 340 Quinnipiac St., Bldg. 40, Wallingford CT 06492
  
  
 ---------------------------------------------------------------
 Warning -- This program may not be used in any manner that
 competes with the business of Gaussian, Inc. or will provide
 assistance to any competitor of Gaussian, Inc.  The licensee
 of this program is prohibited from giving any competitor of
 Gaussian, Inc. access to this program.  By using this program,
 the user acknowledges that Gaussian, Inc. is engaged in the
 business of creating and licensing software in the field of
 computational chemistry and represents and warrants to the
 licensee that it is not a competitor of Gaussian, Inc. and that
 it will not use this program in any manner prohibited above.
 ---------------------------------------------------------------
  

 Cite this work as:
 Gaussian 09, Revision B.01,
 M. J. Frisch, G. W. Trucks, H. B. Schlegel, G. E. Scuseria, 
 M. A. Robb, J. R. Cheeseman, G. Scalmani, V. Barone, B. Mennucci, 
 G. A. Petersson, H. Nakatsuji, M. Caricato, X. Li, H. P. Hratchian, 
 A. F. Izmaylov, J. Bloino, G. Zheng, J. L. Sonnenberg, M. Hada, 
 M. Ehara, K. Toyota, R. Fukuda, J. Hasegawa, M. Ishida, T. Nakajima, 
 Y. Honda, O. Kitao, H. Nakai, T. Vreven, J. A. Montgomery, Jr., 
 J. E. Peralta, F. Ogliaro, M. Bearpark, J. J. Heyd, E. Brothers, 
 K. N. Kudin, V. N. Staroverov, T. Keith, R. Kobayashi, J. Normand, 
 K. Raghavachari, A. Rendell, J. C. Burant, S. S. Iyengar, J. Tomasi, 
 M. Cossi, N. Rega, J. M. Millam, M. Klene, J. E. Knox, J. B. Cross, 
 V. Bakken, C. Adamo, J. Jaramillo, R. Gomperts, R. E. Stratmann, 
 O. Yazyev, A. J. Austin, R. Cammi, C. Pomelli, J. W. Ochterski, 
 R. L. Martin, K. Morokuma, V. G. Zakrzewski, G. A. Voth, 
 P. Salvador, J. J. Dannenberg, S. Dapprich, A. D. Daniels, 
 O. Farkas, J. B. Foresman, J. V. Ortiz, J. Cioslowski, 
 and D. J. Fox, Gaussian, Inc., Wallingford CT, 2010.
 
 ******************************************
 Gaussian 09:  EM64L-G09RevB.01 12-Aug-2010
                11-May-2017 
 ******************************************
 %nprocshared=20
 Will use up to   20 processors via shared memory.
 %mem=5GB
 --------------------------------------------------------------
 # m062x/6-311+g(2df,2p) opt=(verytight,gdiis) freq IOP(2/16=3)
 --------------------------------------------------------------

 Warning!  Use of Opt=GDIIS is deprecated since it is seldom a good choice.

 1/7=1,14=-1,18=20,19=11,26=3,38=1/1,3;
 2/9=110,12=2,16=3,17=6,18=5,40=1/2;
 3/5=4,6=6,7=214,11=2,16=1,25=1,30=1,71=1,74=-55/1,2,3;
 4//1;
 5/5=2,38=5/2;
 6/7=2,8=2,9=2,10=2,28=1/1;
 7//1,2,3,16;
 1/7=1,14=-1,18=20,19=11/3(2);
 2/9=110,16=3/2;
 99//99;
 2/9=110,16=3/2;
 3/5=4,6=6,7=214,11=2,16=1,25=1,30=1,71=1,74=-55/1,2,3;
 4/5=5,16=3/1;
 5/5=2,38=5/2;
 7//1,2,3,16;
 1/7=1,14=-1,18=20,19=11/3(-5);
 2/9=110,16=3/2;
 6/7=2,8=2,9=2,10=2,19=2,28=1/1;
 99/9=1/99;
 ------------------------
 InChI=1S/H2O2/c1-2/h1-2H
 ------------------------
 Symbolic Z-matrix:
 Charge =  0 Multiplicity = 1
 O                    -0.5514    0.3933    0.2612 
 O                     0.5433   -0.3339    0.3468 
 H                    -1.1643   -0.1379   -0.3089 
 H                     1.1724    0.0784   -0.2991 
 

 GradGradGradGradGradGradGradGradGradGradGradGradGradGradGradGradGradGrad
 Berny optimization.
 Initialization pass.
                           ----------------------------
                           !    Initial Parameters    !
                           ! (Angstroms and Degrees)  !
 --------------------------                            --------------------------
 ! Name  Definition              Value          Derivative Info.                !
 --------------------------------------------------------------------------------
 ! R1    R(1,2)                  1.317          estimate D2E/DX2                !
 ! R2    R(1,3)                  0.9914         estimate D2E/DX2                !
 ! R3    R(2,4)                  0.9914         estimate D2E/DX2                !
 ! A1    A(2,1,3)              104.7968         estimate D2E/DX2                !
 ! A2    A(1,2,4)              104.8009         estimate D2E/DX2                !
 ! D1    D(3,1,2,4)            100.8049         estimate D2E/DX2                !
 --------------------------------------------------------------------------------
 Trust Radius=3.00D-01 FncErr=1.00D-07 GrdErr=1.00D-06
 Number of steps in this run=     20 maximum allowed number of steps=    100.
 GradGradGradGradGradGradGradGradGradGradGradGradGradGradGradGradGradGrad

                          Input orientation:                          
 ---------------------------------------------------------------------
 Center     Atomic      Atomic             Coordinates (Angstroms)
 Number     Number       Type             X           Y           Z
 ---------------------------------------------------------------------
      1          8           0       -0.551400    0.393300    0.261200
      2          8           0        0.543300   -0.333900    0.346800
      3          1           0       -1.164300   -0.137900   -0.308900
      4          1           0        1.172400    0.078400   -0.299100
 ---------------------------------------------------------------------
                    Distance matrix (angstroms):
                    1          2          3          4
     1  O    0.000000
     2  O    1.317010   0.000000
     3  H    0.991380   1.839635   0.000000
     4  H    1.839724   0.991436   2.346710   0.000000
 Stoichiometry    H2O2
 Framework group  C1[X(H2O2)]
 Deg. of freedom     6
 Full point group                 C1      NOp   1
 Largest Abelian subgroup         C1      NOp   1
 Largest concise Abelian subgroup C1      NOp   1
                         Standard orientation:                         
 ---------------------------------------------------------------------
 Center     Atomic      Atomic             Coordinates (Angstroms)
 Number     Number       Type             X           Y           Z
 ---------------------------------------------------------------------
      1          8           0        0.648772    0.112823   -0.067890
      2          8           0       -0.648761   -0.112839   -0.067877
      3          1           0        1.024761   -0.571372    0.543127
      4          1           0       -1.024847    0.571499    0.543012
 ---------------------------------------------------------------------
 Rotational constants (GHZ):    300.6598354     30.8507264     30.3589596
 Standard basis: 6-311+G(2df,2p) (5D, 7F)
 There are    86 symmetry adapted basis functions of A   symmetry.
 Integral buffers will be    131072 words long.
 Raffenetti 2 integral format.
 Two-electron integral symmetry is turned on.
    86 basis functions,   126 primitive gaussians,    96 cartesian basis functions
     9 alpha electrons        9 beta electrons
       nuclear repulsion energy        39.0833812774 Hartrees.
 NAtoms=    4 NActive=    4 NUniq=    4 SFac= 1.00D+00 NAtFMM=   50 NAOKFM=F Big=F
 One-electron integrals computed using PRISM.
 NBasis=    86 RedAO= T  NBF=    86
 NBsUse=    86 1.00D-06 NBFU=    86
 Harris functional with IExCor= 1009 diagonalized for initial guess.
 ExpMin= 8.45D-02 ExpMax= 8.59D+03 ExpMxC= 1.30D+03 IAcc=2 IRadAn=         0 AccDes= 0.00D+00
 HarFok:  IExCor= 1009 AccDes= 0.00D+00 IRadAn=         0 IDoV= 1
 ScaDFX=  1.000000  1.000000  1.000000  1.000000
 FoFCou: FMM=F IPFlag=           0 FMFlag=      100000 FMFlg1=           0
         NFxFlg=           0 DoJE=T BraDBF=F KetDBF=T FulRan=T
         Omega=  0.000000  0.000000  1.000000  0.000000  0.000000 ICntrl=     500 IOpCl=  0
         NMat0=    1 NMatS0=    1 NMatT0=    0 NMatD0=    1 NMtDS0=    0 NMtDT0=    0
         I1Cent=           4 NGrid=           0.
 Petite list used in FoFCou.
 Initial guess orbital symmetries:
       Occupied  (A) (A) (A) (A) (A) (A) (A) (A) (A)
       Virtual   (A) (A) (A) (A) (A) (A) (A) (A) (A) (A) (A) (A)
                 (A) (A) (A) (A) (A) (A) (A) (A) (A) (A) (A) (A)
                 (A) (A) (A) (A) (A) (A) (A) (A) (A) (A) (A) (A)
                 (A) (A) (A) (A) (A) (A) (A) (A) (A) (A) (A) (A)
                 (A) (A) (A) (A) (A) (A) (A) (A) (A) (A) (A) (A)
                 (A) (A) (A) (A) (A) (A) (A) (A) (A) (A) (A) (A)
                 (A) (A) (A) (A) (A)
 The electronic state of the initial guess is 1-A.
 Requested convergence on RMS density matrix=1.00D-08 within 128 cycles.
 Requested convergence on MAX density matrix=1.00D-06.
 Requested convergence on             energy=1.00D-06.
 No special actions if energy rises.
 Keep R1 ints in memory in canonical form, NReq=12863544.
 Integral accuracy reduced to 1.0D-05 until final iterations.
 Initial convergence to 1.0D-05 achieved.  Increase integral accuracy.
 SCF Done:  E(RM062X) =  -151.535859011     A.U. after   12 cycles
             Convg  =    0.4537D-08             -V/T =  2.0018

 **********************************************************************

            Population analysis using the SCF density.

 **********************************************************************

 Orbital symmetries:
       Occupied  (A) (A) (A) (A) (A) (A) (A) (A) (A)
       Virtual   (A) (A) (A) (A) (A) (A) (A) (A) (A) (A) (A) (A)
                 (A) (A) (A) (A) (A) (A) (A) (A) (A) (A) (A) (A)
                 (A) (A) (A) (A) (A) (A) (A) (A) (A) (A) (A) (A)
                 (A) (A) (A) (A) (A) (A) (A) (A) (A) (A) (A) (A)
                 (A) (A) (A) (A) (A) (A) (A) (A) (A) (A) (A) (A)
                 (A) (A) (A) (A) (A) (A) (A) (A) (A) (A) (A) (A)
                 (A) (A) (A) (A) (A)
 The electronic state is 1-A.
 Alpha  occ. eigenvalues --  -19.68310 -19.68285  -1.31271  -0.98820  -0.65278
 Alpha  occ. eigenvalues --   -0.59580  -0.53721  -0.38030  -0.36344
 Alpha virt. eigenvalues --    0.05713   0.06604   0.12931   0.15890   0.19243
 Alpha virt. eigenvalues --    0.19253   0.21259   0.21703   0.26358   0.30486
 Alpha virt. eigenvalues --    0.33739   0.48300   0.49500   0.66514   0.71557
 Alpha virt. eigenvalues --    0.79961   0.80562   0.89179   0.92676   0.95867
 Alpha virt. eigenvalues --    1.08811   1.10515   1.11365   1.31311   1.38292
 Alpha virt. eigenvalues --    1.40720   1.54216   1.55229   1.57421   1.69558
 Alpha virt. eigenvalues --    1.89687   2.05478   2.16064   2.24774   2.26503
 Alpha virt. eigenvalues --    2.33895   2.47314   2.61273   2.77363   3.54427
 Alpha virt. eigenvalues --    3.68343   3.72411   3.78799   4.04657   4.08636
 Alpha virt. eigenvalues --    4.58907   4.59681   4.70295   4.74293   4.87444
 Alpha virt. eigenvalues --    5.08948   5.10044   5.14449   5.18387   5.22813
 Alpha virt. eigenvalues --    5.29474   5.39317   5.49476   5.56411   5.73882
 Alpha virt. eigenvalues --    6.33364   6.33729   6.81363   6.87687   6.89224
 Alpha virt. eigenvalues --    6.94287   6.95691   6.97057   6.97318   7.26346
 Alpha virt. eigenvalues --    7.27552   7.50863   7.51488   7.89529   7.90073
 Alpha virt. eigenvalues --   49.97826  50.00882
          Condensed to atoms (all electrons):
              1          2          3          4
     1  O    7.987791   0.111979   0.230189  -0.071717
     2  O    0.111979   7.987838  -0.071725   0.230177
     3  H    0.230189  -0.071725   0.575630   0.007656
     4  H   -0.071717   0.230177   0.007656   0.575625
 Mulliken atomic charges:
              1
     1  O   -0.258242
     2  O   -0.258268
     3  H    0.258250
     4  H    0.258260
 Sum of Mulliken atomic charges =   0.00000
 Mulliken charges with hydrogens summed into heavy atoms:
              1
     1  O    0.000008
     2  O   -0.000008
 Sum of Mulliken charges with hydrogens summed into heavy atoms =   0.00000
 Electronic spatial extent (au):  <R**2>=             61.5858
 Charge=              0.0000 electrons
 Dipole moment (field-independent basis, Debye):
    X=             -0.0001    Y=              0.0002    Z=              2.1176  Tot=              2.1176
 Quadrupole moment (field-independent basis, Debye-Ang):
   XX=            -10.5330   YY=            -11.1669   ZZ=            -11.3971
   XY=             -2.8693   XZ=              0.0002   YZ=              0.0000
 Traceless Quadrupole moment (field-independent basis, Debye-Ang):
   XX=              0.4993   YY=             -0.1345   ZZ=             -0.3648
   XY=             -2.8693   XZ=              0.0002   YZ=              0.0000
 Octapole moment (field-independent basis, Debye-Ang**2):
  XXX=             -0.0004  YYY=              0.0002  ZZZ=              1.3980  XYY=             -0.0003
  XXY=              0.0005  XXZ=              2.8986  XZZ=              0.0004  YZZ=             -0.0001
  YYZ=              0.8994  XYZ=             -1.5623
 Hexadecapole moment (field-independent basis, Debye-Ang**3):
 XXXX=            -38.9536 YYYY=            -11.9131 ZZZZ=            -11.5381 XXXY=             -3.7396
 XXXZ=              0.0002 YYYX=             -2.2890 YYYZ=              0.0001 ZZZX=              0.0004
 ZZZY=             -0.0002 XXYY=             -8.5678 XXZZ=             -8.7887 YYZZ=             -3.5213
 XXYZ=              0.0001 YYXZ=             -0.0001 ZZXY=             -1.2144
 N-N= 3.908338127735D+01 E-N=-4.370007152113D+02  KE= 1.512598854341D+02
 Calling FoFJK, ICntrl=      2127 FMM=F ISym2X=0 I1Cent= 0 IOpClX= 0 NMat=1 NMatS=1 NMatT=0.
 ***** Axes restored to original set *****
 -------------------------------------------------------------------
 Center     Atomic                   Forces (Hartrees/Bohr)
 Number     Number              X              Y              Z
 -------------------------------------------------------------------
      1        8          -0.086170311    0.031759122   -0.020251535
      2        8           0.086626360   -0.034846443   -0.011466822
      3        1           0.013567527    0.014127150    0.014798963
      4        1          -0.014023576   -0.011039829    0.016919394
 -------------------------------------------------------------------
 Cartesian Forces:  Max     0.086626360 RMS     0.039687787

 GradGradGradGradGradGradGradGradGradGradGradGradGradGradGradGradGradGrad
 Berny optimization.
 Internal  Forces:  Max     0.086028278 RMS     0.037915521
 Search for a local minimum.
 Step number   1 out of a maximum of   20
 All quantities printed in internal units (Hartrees-Bohrs-Radians)
 Swaping is turned off.
 Second derivative matrix not updated -- first step.
 The second derivative matrix:
                          R1        R2        R3        A1        A2
           R1           0.62682
           R2           0.00000   0.49237
           R3           0.00000   0.00000   0.49226
           A1           0.00000   0.00000   0.00000   0.16000
           A2           0.00000   0.00000   0.00000   0.00000   0.16000
           D1           0.00000   0.00000   0.00000   0.00000   0.00000
                          D1
           D1           0.02393
 ITU=  0
     Eigenvalues ---    0.02393   0.16000   0.16000   0.49226   0.49237
     Eigenvalues ---    0.62682
 Angle between quadratic step and forces=  20.41 degrees.
 Linear search not attempted -- option 19 set.
 Iteration  1 RMS(Cart)=  0.06546192 RMS(Int)=  0.00104463
 Iteration  2 RMS(Cart)=  0.00073119 RMS(Int)=  0.00000078
 Iteration  3 RMS(Cart)=  0.00000065 RMS(Int)=  0.00000000
 Variable       Old X    -DE/DX   Delta X   Delta X   Delta X     New X
                                 (Linear)    (Quad)   (Total)
    R1        2.48879   0.08603   0.00000   0.13725   0.13725   2.62603
    R2        1.87344  -0.02446   0.00000  -0.04968  -0.04968   1.82376
    R3        1.87354  -0.02451   0.00000  -0.04978  -0.04978   1.82376
    A1        1.82905   0.00348   0.00000   0.02178   0.02178   1.85083
    A2        1.82912   0.00347   0.00000   0.02167   0.02167   1.85079
    D1        1.75938   0.00128   0.00000   0.05365   0.05365   1.81302
         Item               Value     Threshold  Converged?
 Maximum Force            0.086028     0.000002     NO 
 RMS     Force            0.037916     0.000001     NO 
 Maximum Displacement     0.074539     0.000006     NO 
 RMS     Displacement     0.065320     0.000004     NO 
 Predicted change in Energy=-7.230973D-03
 GradGradGradGradGradGradGradGradGradGradGradGradGradGradGradGradGradGrad

                          Input orientation:                          
 ---------------------------------------------------------------------
 Center     Atomic      Atomic             Coordinates (Angstroms)
 Number     Number       Type             X           Y           Z
 ---------------------------------------------------------------------
      1          8           0       -0.590275    0.397719    0.240571
      2          8           0        0.582744   -0.342139    0.328468
      3          1           0       -1.199310   -0.129979   -0.290475
      4          1           0        1.206841    0.074298   -0.278564
 ---------------------------------------------------------------------
                    Distance matrix (angstroms):
                    1          2          3          4
     1  O    0.000000
     2  O    1.389637   0.000000
     3  H    0.965090   1.898373   0.000000
     4  H    1.898349   0.965093   2.414836   0.000000
 Stoichiometry    H2O2
 Framework group  C1[X(H2O2)]
 Deg. of freedom     6
 Full point group                 C1      NOp   1
 Largest Abelian subgroup         C1      NOp   1
 Largest concise Abelian subgroup C1      NOp   1
                         Standard orientation:                         
 ---------------------------------------------------------------------
 Center     Atomic      Atomic             Coordinates (Angstroms)
 Number     Number       Type             X           Y           Z
 ---------------------------------------------------------------------
      1          8           0        0.686002    0.110318   -0.063539
      2          8           0       -0.686006   -0.110326   -0.063528
      3          1           0        1.065306   -0.568312    0.508291
      4          1           0       -1.065276    0.568374    0.508246
 ---------------------------------------------------------------------
 Rotational constants (GHZ):    321.3982126     27.9990763     27.4926250
 Standard basis: 6-311+G(2df,2p) (5D, 7F)
 There are    86 symmetry adapted basis functions of A   symmetry.
 Integral buffers will be    131072 words long.
 Raffenetti 2 integral format.
 Two-electron integral symmetry is turned on.
    86 basis functions,   126 primitive gaussians,    96 cartesian basis functions
     9 alpha electrons        9 beta electrons
       nuclear repulsion energy        37.8236630166 Hartrees.
 NAtoms=    4 NActive=    4 NUniq=    4 SFac= 1.00D+00 NAtFMM=   50 NAOKFM=F Big=F
 One-electron integrals computed using PRISM.
 NBasis=    86 RedAO= T  NBF=    86
 NBsUse=    86 1.00D-06 NBFU=    86
 Initial guess read from the read-write file.
 B after Tr=     0.000000    0.000000    0.000000
         Rot=    1.000000    0.000000    0.000000    0.000000 Ang=   0.00 deg.
 Initial guess orbital symmetries:
       Occupied  (A) (A) (A) (A) (A) (A) (A) (A) (A)
       Virtual   (A) (A) (A) (A) (A) (A) (A) (A) (A) (A) (A) (A)
                 (A) (A) (A) (A) (A) (A) (A) (A) (A) (A) (A) (A)
                 (A) (A) (A) (A) (A) (A) (A) (A) (A) (A) (A) (A)
                 (A) (A) (A) (A) (A) (A) (A) (A) (A) (A) (A) (A)
                 (A) (A) (A) (A) (A) (A) (A) (A) (A) (A) (A) (A)
                 (A) (A) (A) (A) (A) (A) (A) (A) (A) (A) (A) (A)
                 (A) (A) (A) (A) (A)
 Harris functional with IExCor= 1009 diagonalized for initial guess.
 ExpMin= 8.45D-02 ExpMax= 8.59D+03 ExpMxC= 1.30D+03 IAcc=2 IRadAn=         0 AccDes= 0.00D+00
 HarFok:  IExCor= 1009 AccDes= 0.00D+00 IRadAn=         0 IDoV= 1
 ScaDFX=  1.000000  1.000000  1.000000  1.000000
 FoFCou: FMM=F IPFlag=           0 FMFlag=      100000 FMFlg1=           0
         NFxFlg=           0 DoJE=T BraDBF=F KetDBF=T FulRan=T
         Omega=  0.000000  0.000000  1.000000  0.000000  0.000000 ICntrl=     500 IOpCl=  0
         NMat0=    1 NMatS0=    1 NMatT0=    0 NMatD0=    1 NMtDS0=    0 NMtDT0=    0
         I1Cent=           4 NGrid=           0.
 Petite list used in FoFCou.
 Requested convergence on RMS density matrix=1.00D-08 within 128 cycles.
 Requested convergence on MAX density matrix=1.00D-06.
 Requested convergence on             energy=1.00D-06.
 No special actions if energy rises.
 Keep R1 ints in memory in canonical form, NReq=12863544.
 Integral accuracy reduced to 1.0D-05 until final iterations.
 Initial convergence to 1.0D-05 achieved.  Increase integral accuracy.
 SCF Done:  E(RM062X) =  -151.543392735     A.U. after   13 cycles
             Convg  =    0.5027D-08             -V/T =  2.0025
 Calling FoFJK, ICntrl=      2127 FMM=F ISym2X=0 I1Cent= 0 IOpClX= 0 NMat=1 NMatS=1 NMatT=0.
 ***** Axes restored to original set *****
 -------------------------------------------------------------------
 Center     Atomic                   Forces (Hartrees/Bohr)
 Number     Number              X              Y              Z
 -------------------------------------------------------------------
      1        8          -0.011743783    0.017686085   -0.001705281
      2        8           0.011738197   -0.017646969    0.002054370
      3        1           0.006252944   -0.004535967    0.000348576
      4        1          -0.006247358    0.004496851   -0.000697665
 -------------------------------------------------------------------
 Cartesian Forces:  Max     0.017686085 RMS     0.009249220

 GradGradGradGradGradGradGradGradGradGradGradGradGradGradGradGradGradGrad
 Berny optimization.
 Using GDIIS optimizer.
 Internal  Forces:  Max     0.013725479 RMS     0.009310412
 Search for a local minimum.
 Step number   2 out of a maximum of   20
 All quantities printed in internal units (Hartrees-Bohrs-Radians)
 Swaping is turned off.
 Update second derivatives using D2CorX and points    1    2
 DE= -7.53D-03 DEPred=-7.23D-03 R= 1.04D+00
 SS=  1.41D+00  RLast= 1.66D-01 DXNew= 5.0454D-01 4.9844D-01
 Trust test= 1.04D+00 RLast= 1.66D-01 DXMaxT set to 4.98D-01
 The second derivative matrix:
                          R1        R2        R3        A1        A2
           R1           0.53105
           R2           0.01790   0.49014
           R3           0.01793  -0.00223   0.49003
           A1           0.07564  -0.02367  -0.02371   0.18149
           A2           0.07560  -0.02365  -0.02370   0.02146   0.18143
           D1          -0.00188   0.00040   0.00040   0.00103   0.00102
                          D1
           D1           0.02389
 ITU=  1  0
     Eigenvalues ---    0.02386   0.16000   0.16264   0.49231   0.49470
     Eigenvalues ---    0.56450
 DIIS coeff's:      1.09012     -0.09012
 Cosine:  1.000 >  0.970
 Length:  1.000
 GDIIS step was calculated using  2 of the last  2 vectors.
 Iteration  1 RMS(Cart)=  0.06061871 RMS(Int)=  0.00261008
 Iteration  2 RMS(Cart)=  0.00218717 RMS(Int)=  0.00000352
 Iteration  3 RMS(Cart)=  0.00000313 RMS(Int)=  0.00000000
 Iteration  4 RMS(Cart)=  0.00000000 RMS(Int)=  0.00000000
 Variable       Old X    -DE/DX   Delta X   Delta X   Delta X     New X
                                  (DIIS)     (GDIIS)  (Total)
    R1        2.62603   0.01174   0.01237   0.03612   0.04849   2.67452
    R2        1.82376  -0.00167  -0.00448  -0.00938  -0.01386   1.80989
    R3        1.82376  -0.00168  -0.00449  -0.00940  -0.01389   1.80987
    A1        1.85083  -0.01373   0.00196  -0.09102  -0.08906   1.76176
    A2        1.85079  -0.01372   0.00195  -0.09098  -0.08903   1.76176
    D1        1.81302   0.00025   0.00483   0.01775   0.02259   1.83561
         Item               Value     Threshold  Converged?
 Maximum Force            0.013725     0.000002     NO 
 RMS     Force            0.009310     0.000001     NO 
 Maximum Displacement     0.089100     0.000006     NO 
 RMS     Displacement     0.061250     0.000004     NO 
 Predicted change in Energy=-1.532611D-03
 GradGradGradGradGradGradGradGradGradGradGradGradGradGradGradGradGradGrad

                          Input orientation:                          
 ---------------------------------------------------------------------
 Center     Atomic      Atomic             Coordinates (Angstroms)
 Number     Number       Type             X           Y           Z
 ---------------------------------------------------------------------
      1          8           0       -0.586968    0.425846    0.237628
      2          8           0        0.579439   -0.370303    0.330927
      3          1           0       -1.152163   -0.140700   -0.288561
      4          1           0        1.159691    0.085057   -0.279994
 ---------------------------------------------------------------------
                    Distance matrix (angstroms):
                    1          2          3          4
     1  O    0.000000
     2  O    1.415296   0.000000
     3  H    0.957755   1.853356   0.000000
     4  H    1.853345   0.957742   2.322866   0.000000
 Stoichiometry    H2O2
 Framework group  C1[X(H2O2)]
 Deg. of freedom     6
 Full point group                 C1      NOp   1
 Largest Abelian subgroup         C1      NOp   1
 Largest concise Abelian subgroup C1      NOp   1
                         Standard orientation:                         
 ---------------------------------------------------------------------
 Center     Atomic      Atomic             Coordinates (Angstroms)
 Number     Number       Type             X           Y           Z
 ---------------------------------------------------------------------
      1          8           0       -0.699504   -0.107046   -0.063478
      2          8           0        0.699505    0.107042   -0.063481
      3          1           0       -0.992183    0.603761    0.507824
      4          1           0        0.992175   -0.603730    0.507849
 ---------------------------------------------------------------------
 Rotational constants (GHZ):    309.0456640     27.5547408     26.9702789
 Standard basis: 6-311+G(2df,2p) (5D, 7F)
 There are    86 symmetry adapted basis functions of A   symmetry.
 Integral buffers will be    131072 words long.
 Raffenetti 2 integral format.
 Two-electron integral symmetry is turned on.
    86 basis functions,   126 primitive gaussians,    96 cartesian basis functions
     9 alpha electrons        9 beta electrons
       nuclear repulsion energy        37.5660764105 Hartrees.
 NAtoms=    4 NActive=    4 NUniq=    4 SFac= 1.00D+00 NAtFMM=   50 NAOKFM=F Big=F
 One-electron integrals computed using PRISM.
 NBasis=    86 RedAO= T  NBF=    86
 NBsUse=    86 1.00D-06 NBFU=    86
 Initial guess read from the read-write file.
 B after Tr=     0.000000    0.000000    0.000000
         Rot=    1.000000    0.000000    0.000000    0.000000 Ang=   0.00 deg.
 Initial guess orbital symmetries:
       Occupied  (A) (A) (A) (A) (A) (A) (A) (A) (A)
       Virtual   (A) (A) (A) (A) (A) (A) (A) (A) (A) (A) (A) (A)
                 (A) (A) (A) (A) (A) (A) (A) (A) (A) (A) (A) (A)
                 (A) (A) (A) (A) (A) (A) (A) (A) (A) (A) (A) (A)
                 (A) (A) (A) (A) (A) (A) (A) (A) (A) (A) (A) (A)
                 (A) (A) (A) (A) (A) (A) (A) (A) (A) (A) (A) (A)
                 (A) (A) (A) (A) (A) (A) (A) (A) (A) (A) (A) (A)
                 (A) (A) (A) (A) (A)
 Harris functional with IExCor= 1009 diagonalized for initial guess.
 ExpMin= 8.45D-02 ExpMax= 8.59D+03 ExpMxC= 1.30D+03 IAcc=2 IRadAn=         0 AccDes= 0.00D+00
 HarFok:  IExCor= 1009 AccDes= 0.00D+00 IRadAn=         0 IDoV= 1
 ScaDFX=  1.000000  1.000000  1.000000  1.000000
 FoFCou: FMM=F IPFlag=           0 FMFlag=      100000 FMFlg1=           0
         NFxFlg=           0 DoJE=T BraDBF=F KetDBF=T FulRan=T
         Omega=  0.000000  0.000000  1.000000  0.000000  0.000000 ICntrl=     500 IOpCl=  0
         NMat0=    1 NMatS0=    1 NMatT0=    0 NMatD0=    1 NMtDS0=    0 NMtDT0=    0
         I1Cent=           4 NGrid=           0.
 Petite list used in FoFCou.
 Requested convergence on RMS density matrix=1.00D-08 within 128 cycles.
 Requested convergence on MAX density matrix=1.00D-06.
 Requested convergence on             energy=1.00D-06.
 No special actions if energy rises.
 Keep R1 ints in memory in canonical form, NReq=12863544.
 Integral accuracy reduced to 1.0D-05 until final iterations.
 Initial convergence to 1.0D-05 achieved.  Increase integral accuracy.
 SCF Done:  E(RM062X) =  -151.544567942     A.U. after   14 cycles
             Convg  =    0.5429D-08             -V/T =  2.0024
 Calling FoFJK, ICntrl=      2127 FMM=F ISym2X=0 I1Cent= 0 IOpClX= 0 NMat=1 NMatS=1 NMatT=0.
 ***** Axes restored to original set *****
 -------------------------------------------------------------------
 Center     Atomic                   Forces (Hartrees/Bohr)
 Number     Number              X              Y              Z
 -------------------------------------------------------------------
      1        8          -0.000118817    0.002536893    0.002051221
      2        8           0.000050334   -0.002097100    0.002513654
      3        1          -0.005517891   -0.001912138   -0.002186779
      4        1           0.005586374    0.001472346   -0.002378095
 -------------------------------------------------------------------
 Cartesian Forces:  Max     0.005586374 RMS     0.002876520

 GradGradGradGradGradGradGradGradGradGradGradGradGradGradGradGradGradGrad
 Berny optimization.
 Using GDIIS optimizer.
 Internal  Forces:  Max     0.005597880 RMS     0.004742817
 Search for a local minimum.
 Step number   3 out of a maximum of   20
 All quantities printed in internal units (Hartrees-Bohrs-Radians)
 Swaping is turned off.
 Update second derivatives using D2CorX and points    1    2    3
 DE= -1.18D-03 DEPred=-1.53D-03 R= 7.67D-01
 SS=  1.41D+00  RLast= 1.38D-01 DXNew= 8.3827D-01 4.1466D-01
 Trust test= 7.67D-01 RLast= 1.38D-01 DXMaxT set to 4.98D-01
 The second derivative matrix:
                          R1        R2        R3        A1        A2
           R1           0.44037
           R2           0.00496   0.51496
           R3           0.00496   0.02264   0.51495
           A1           0.07992   0.00091   0.00092   0.20609
           A2           0.07986   0.00092   0.00093   0.04606   0.20603
           D1          -0.01134   0.00521   0.00522   0.00707   0.00707
                          D1
           D1           0.02433
 ITU=  1  1  0
     Eigenvalues ---    0.02305   0.16000   0.20029   0.49229   0.49231
     Eigenvalues ---    0.53880
 DIIS coeff's:      0.79159      0.26897     -0.06056
 Cosine:  0.998 >  0.840
 Length:  0.963
 GDIIS step was calculated using  3 of the last  3 vectors.
 Iteration  1 RMS(Cart)=  0.02985416 RMS(Int)=  0.00051172
 Iteration  2 RMS(Cart)=  0.00036223 RMS(Int)=  0.00000005
 Iteration  3 RMS(Cart)=  0.00000007 RMS(Int)=  0.00000000
 Variable       Old X    -DE/DX   Delta X   Delta X   Delta X     New X
                                  (DIIS)     (GDIIS)  (Total)
    R1        2.67452   0.00501  -0.00179   0.00722   0.00542   2.67995
    R2        1.80989   0.00559  -0.00012   0.00955   0.00943   1.81933
    R3        1.80987   0.00560  -0.00012   0.00958   0.00946   1.81933
    A1        1.76176   0.00472   0.01988  -0.00458   0.01530   1.77707
    A2        1.76176   0.00472   0.01987  -0.00455   0.01532   1.77707
    D1        1.83561   0.00166  -0.00146   0.05551   0.05405   1.88966
         Item               Value     Threshold  Converged?
 Maximum Force            0.005598     0.000002     NO 
 RMS     Force            0.004743     0.000001     NO 
 Maximum Displacement     0.044683     0.000006     NO 
 RMS     Displacement     0.029858     0.000004     NO 
 Predicted change in Energy=-1.899400D-04
 GradGradGradGradGradGradGradGradGradGradGradGradGradGradGradGradGradGrad

                          Input orientation:                          
 ---------------------------------------------------------------------
 Center     Atomic      Atomic             Coordinates (Angstroms)
 Number     Number       Type             X           Y           Z
 ---------------------------------------------------------------------
      1          8           0       -0.587524    0.426447    0.227905
      2          8           0        0.580241   -0.372775    0.321523
      3          1           0       -1.175808   -0.142604   -0.279029
      4          1           0        1.183091    0.088832   -0.270398
 ---------------------------------------------------------------------
                    Distance matrix (angstroms):
                    1          2          3          4
     1  O    0.000000
     2  O    1.418166   0.000000
     3  H    0.962746   1.870120   0.000000
     4  H    1.870125   0.962746   2.370241   0.000000
 Stoichiometry    H2O2
 Framework group  C1[X(H2O2)]
 Deg. of freedom     6
 Full point group                 C1      NOp   1
 Largest Abelian subgroup         C1      NOp   1
 Largest concise Abelian subgroup C1      NOp   1
                         Standard orientation:                         
 ---------------------------------------------------------------------
 Center     Atomic      Atomic             Coordinates (Angstroms)
 Number     Number       Type             X           Y           Z
 ---------------------------------------------------------------------
      1          8           0       -0.700355   -0.110914   -0.061343
      2          8           0        0.700354    0.110913   -0.061345
      3          1           0       -1.014562    0.612513    0.490750
      4          1           0        1.014567   -0.612508    0.490753
 ---------------------------------------------------------------------
 Rotational constants (GHZ):    308.7575365     27.4147343     26.7177949
 Standard basis: 6-311+G(2df,2p) (5D, 7F)
 There are    86 symmetry adapted basis functions of A   symmetry.
 Integral buffers will be    131072 words long.
 Raffenetti 2 integral format.
 Two-electron integral symmetry is turned on.
    86 basis functions,   126 primitive gaussians,    96 cartesian basis functions
     9 alpha electrons        9 beta electrons
       nuclear repulsion energy        37.4262274436 Hartrees.
 NAtoms=    4 NActive=    4 NUniq=    4 SFac= 1.00D+00 NAtFMM=   50 NAOKFM=F Big=F
 One-electron integrals computed using PRISM.
 NBasis=    86 RedAO= T  NBF=    86
 NBsUse=    86 1.00D-06 NBFU=    86
 Initial guess read from the read-write file.
 B after Tr=     0.000000    0.000000    0.000000
         Rot=    1.000000    0.000000    0.000000    0.000000 Ang=   0.00 deg.
 Initial guess orbital symmetries:
       Occupied  (A) (A) (A) (A) (A) (A) (A) (A) (A)
       Virtual   (A) (A) (A) (A) (A) (A) (A) (A) (A) (A) (A) (A)
                 (A) (A) (A) (A) (A) (A) (A) (A) (A) (A) (A) (A)
                 (A) (A) (A) (A) (A) (A) (A) (A) (A) (A) (A) (A)
                 (A) (A) (A) (A) (A) (A) (A) (A) (A) (A) (A) (A)
                 (A) (A) (A) (A) (A) (A) (A) (A) (A) (A) (A) (A)
                 (A) (A) (A) (A) (A) (A) (A) (A) (A) (A) (A) (A)
                 (A) (A) (A) (A) (A)
 Harris functional with IExCor= 1009 diagonalized for initial guess.
 ExpMin= 8.45D-02 ExpMax= 8.59D+03 ExpMxC= 1.30D+03 IAcc=2 IRadAn=         0 AccDes= 0.00D+00
 HarFok:  IExCor= 1009 AccDes= 0.00D+00 IRadAn=         0 IDoV= 1
 ScaDFX=  1.000000  1.000000  1.000000  1.000000
 FoFCou: FMM=F IPFlag=           0 FMFlag=      100000 FMFlg1=           0
         NFxFlg=           0 DoJE=T BraDBF=F KetDBF=T FulRan=T
         Omega=  0.000000  0.000000  1.000000  0.000000  0.000000 ICntrl=     500 IOpCl=  0
         NMat0=    1 NMatS0=    1 NMatT0=    0 NMatD0=    1 NMtDS0=    0 NMtDT0=    0
         I1Cent=           4 NGrid=           0.
 Petite list used in FoFCou.
 Requested convergence on RMS density matrix=1.00D-08 within 128 cycles.
 Requested convergence on MAX density matrix=1.00D-06.
 Requested convergence on             energy=1.00D-06.
 No special actions if energy rises.
 Keep R1 ints in memory in canonical form, NReq=12863544.
 Integral accuracy reduced to 1.0D-05 until final iterations.
 Initial convergence to 1.0D-05 achieved.  Increase integral accuracy.
 SCF Done:  E(RM062X) =  -151.544777189     A.U. after   12 cycles
             Convg  =    0.2747D-08             -V/T =  2.0026
 Calling FoFJK, ICntrl=      2127 FMM=F ISym2X=0 I1Cent= 0 IOpClX= 0 NMat=1 NMatS=1 NMatT=0.
 ***** Axes restored to original set *****
 -------------------------------------------------------------------
 Center     Atomic                   Forces (Hartrees/Bohr)
 Number     Number              X              Y              Z
 -------------------------------------------------------------------
      1        8          -0.000098103    0.000810011   -0.000190028
      2        8           0.000101494   -0.000831660   -0.000026201
      3        1          -0.000408684   -0.000415351    0.000144434
      4        1           0.000405293    0.000437000    0.000071796
 -------------------------------------------------------------------
 Cartesian Forces:  Max     0.000831660 RMS     0.000420841

 GradGradGradGradGradGradGradGradGradGradGradGradGradGradGradGradGradGrad
 Berny optimization.
 Using GDIIS optimizer.
 Internal  Forces:  Max     0.000757139 RMS     0.000472508
 Search for a local minimum.
 Step number   4 out of a maximum of   20
 All quantities printed in internal units (Hartrees-Bohrs-Radians)
 Swaping is turned off.
 Update second derivatives using D2CorX and points    1    2    3    4
 DE= -2.09D-04 DEPred=-1.90D-04 R= 1.10D+00
 SS=  1.41D+00  RLast= 6.00D-02 DXNew= 8.3827D-01 1.7996D-01
 Trust test= 1.10D+00 RLast= 6.00D-02 DXMaxT set to 4.98D-01
 The second derivative matrix:
                          R1        R2        R3        A1        A2
           R1           0.47285
           R2           0.01304   0.51445
           R3           0.01308   0.02215   0.51448
           A1           0.08842   0.00865   0.00869   0.20962
           A2           0.08840   0.00869   0.00873   0.04962   0.20962
           D1          -0.02141  -0.00421  -0.00422   0.00152   0.00152
                          D1
           D1           0.01944
 ITU=  1  1  1  0
     Eigenvalues ---    0.01806   0.16000   0.20207   0.49231   0.50961
     Eigenvalues ---    0.55841
 DIIS coeff's:      1.33868     -0.26830     -0.07231      0.00193
 Cosine:  0.999 >  0.710
 Length:  1.059
 GDIIS step was calculated using  4 of the last  4 vectors.
 Iteration  1 RMS(Cart)=  0.01731623 RMS(Int)=  0.00027515
 Iteration  2 RMS(Cart)=  0.00019288 RMS(Int)=  0.00000001
 Iteration  3 RMS(Cart)=  0.00000002 RMS(Int)=  0.00000000
 Variable       Old X    -DE/DX   Delta X   Delta X   Delta X     New X
                                  (DIIS)     (GDIIS)  (Total)
    R1        2.67995   0.00065   0.00499  -0.00091   0.00407   2.68402
    R2        1.81933   0.00041   0.00231  -0.00137   0.00095   1.82028
    R3        1.81933   0.00041   0.00232  -0.00137   0.00095   1.82028
    A1        1.77707   0.00003  -0.00113  -0.00064  -0.00177   1.77530
    A2        1.77707   0.00003  -0.00112  -0.00066  -0.00178   1.77529
    D1        1.88966   0.00076   0.01979   0.02693   0.04672   1.93638
         Item               Value     Threshold  Converged?
 Maximum Force            0.000757     0.000002     NO 
 RMS     Force            0.000473     0.000001     NO 
 Maximum Displacement     0.017237     0.000006     NO 
 RMS     Displacement     0.017328     0.000004     NO 
 Predicted change in Energy=-1.820592D-05
 GradGradGradGradGradGradGradGradGradGradGradGradGradGradGradGradGradGrad

                          Input orientation:                          
 ---------------------------------------------------------------------
 Center     Atomic      Atomic             Coordinates (Angstroms)
 Number     Number       Type             X           Y           Z
 ---------------------------------------------------------------------
      1          8           0       -0.585656    0.429991    0.218783
      2          8           0        0.578607   -0.378025    0.313217
      3          1           0       -1.183905   -0.145304   -0.270074
      4          1           0        1.190953    0.093238   -0.261927
 ---------------------------------------------------------------------
                    Distance matrix (angstroms):
                    1          2          3          4
     1  O    0.000000
     2  O    1.420322   0.000000
     3  H    0.963248   1.871052   0.000000
     4  H    1.871049   0.963248   2.386822   0.000000
 Stoichiometry    H2O2
 Framework group  C1[X(H2O2)]
 Deg. of freedom     6
 Full point group                 C1      NOp   1
 Largest Abelian subgroup         C1      NOp   1
 Largest concise Abelian subgroup C1      NOp   1
                         Standard orientation:                         
 ---------------------------------------------------------------------
 Center     Atomic      Atomic             Coordinates (Angstroms)
 Number     Number       Type             X           Y           Z
 ---------------------------------------------------------------------
      1          8           0        0.701104    0.113055   -0.059399
      2          8           0       -0.701104   -0.113055   -0.059398
      3          1           0        1.017928   -0.622940    0.475187
      4          1           0       -1.017925    0.622943    0.475185
 ---------------------------------------------------------------------
 Rotational constants (GHZ):    308.4667191     27.3924897     26.5931191
 Standard basis: 6-311+G(2df,2p) (5D, 7F)
 There are    86 symmetry adapted basis functions of A   symmetry.
 Integral buffers will be    131072 words long.
 Raffenetti 2 integral format.
 Two-electron integral symmetry is turned on.
    86 basis functions,   126 primitive gaussians,    96 cartesian basis functions
     9 alpha electrons        9 beta electrons
       nuclear repulsion energy        37.3816042875 Hartrees.
 NAtoms=    4 NActive=    4 NUniq=    4 SFac= 1.00D+00 NAtFMM=   50 NAOKFM=F Big=F
 One-electron integrals computed using PRISM.
 NBasis=    86 RedAO= T  NBF=    86
 NBsUse=    86 1.00D-06 NBFU=    86
 Initial guess read from the read-write file.
 B after Tr=     0.000000    0.000000    0.000000
         Rot=    1.000000    0.000000    0.000000    0.000000 Ang=   0.00 deg.
 Initial guess orbital symmetries:
       Occupied  (A) (A) (A) (A) (A) (A) (A) (A) (A)
       Virtual   (A) (A) (A) (A) (A) (A) (A) (A) (A) (A) (A) (A)
                 (A) (A) (A) (A) (A) (A) (A) (A) (A) (A) (A) (A)
                 (A) (A) (A) (A) (A) (A) (A) (A) (A) (A) (A) (A)
                 (A) (A) (A) (A) (A) (A) (A) (A) (A) (A) (A) (A)
                 (A) (A) (A) (A) (A) (A) (A) (A) (A) (A) (A) (A)
                 (A) (A) (A) (A) (A) (A) (A) (A) (A) (A) (A) (A)
                 (A) (A) (A) (A) (A)
 Requested convergence on RMS density matrix=1.00D-08 within 128 cycles.
 Requested convergence on MAX density matrix=1.00D-06.
 Requested convergence on             energy=1.00D-06.
 No special actions if energy rises.
 Keep R1 ints in memory in canonical form, NReq=12863544.
 SCF Done:  E(RM062X) =  -151.544803758     A.U. after   13 cycles
             Convg  =    0.1568D-08             -V/T =  2.0026
 Calling FoFJK, ICntrl=      2127 FMM=F ISym2X=0 I1Cent= 0 IOpClX= 0 NMat=1 NMatS=1 NMatT=0.
 ***** Axes restored to original set *****
 -------------------------------------------------------------------
 Center     Atomic                   Forces (Hartrees/Bohr)
 Number     Number              X              Y              Z
 -------------------------------------------------------------------
      1        8           0.000465692   -0.000118942   -0.000208596
      2        8          -0.000460050    0.000075391   -0.000240301
      3        1           0.000111268   -0.000095003    0.000237339
      4        1          -0.000116909    0.000138554    0.000211558
 -------------------------------------------------------------------
 Cartesian Forces:  Max     0.000465692 RMS     0.000242377

 GradGradGradGradGradGradGradGradGradGradGradGradGradGradGradGradGradGrad
 Berny optimization.
 Using GDIIS optimizer.
 Internal  Forces:  Max     0.000587725 RMS     0.000319868
 Search for a local minimum.
 Step number   5 out of a maximum of   20
 All quantities printed in internal units (Hartrees-Bohrs-Radians)
 Swaping is turned off.
 Update second derivatives using D2CorX and points    1    2    3    4    5
 DE= -2.66D-05 DEPred=-1.82D-05 R= 1.46D+00
 SS=  1.41D+00  RLast= 4.70D-02 DXNew= 8.3827D-01 1.4095D-01
 Trust test= 1.46D+00 RLast= 4.70D-02 DXMaxT set to 4.98D-01
 The second derivative matrix:
                          R1        R2        R3        A1        A2
           R1           0.56689
           R2           0.06220   0.53117
           R3           0.06231   0.03889   0.53123
           A1           0.10649   0.01786   0.01790   0.21156
           A2           0.10641   0.01786   0.01790   0.05152   0.21149
           D1          -0.01739  -0.00379  -0.00380   0.00548   0.00547
                          D1
           D1           0.01076
 ITU=  1  1  1  1  0
     Eigenvalues ---    0.00947   0.16000   0.20208   0.49231   0.50003
     Eigenvalues ---    0.69920
 DIIS coeff's:      2.34885     -1.63043      0.23236      0.03984      0.00938
 Cosine:  0.991 >  0.670
 Length:  1.334
 GDIIS step was calculated using  5 of the last  5 vectors.
 Iteration  1 RMS(Cart)=  0.01659636 RMS(Int)=  0.00026859
 Iteration  2 RMS(Cart)=  0.00018724 RMS(Int)=  0.00000001
 Iteration  3 RMS(Cart)=  0.00000002 RMS(Int)=  0.00000000
 Variable       Old X    -DE/DX   Delta X   Delta X   Delta X     New X
                                  (DIIS)     (GDIIS)  (Total)
    R1        2.68402  -0.00059   0.00029   0.00000   0.00029   2.68431
    R2        1.82028  -0.00014  -0.00023   0.00000  -0.00023   1.82004
    R3        1.82028  -0.00014  -0.00023   0.00000  -0.00023   1.82005
    A1        1.77530  -0.00023  -0.00252  -0.00001  -0.00253   1.77276
    A2        1.77529  -0.00023  -0.00254   0.00001  -0.00252   1.77277
    D1        1.93638   0.00035   0.04618   0.00000   0.04618   1.98256
         Item               Value     Threshold  Converged?
 Maximum Force            0.000588     0.000002     NO 
 RMS     Force            0.000320     0.000001     NO 
 Maximum Displacement     0.017473     0.000006     NO 
 RMS     Displacement     0.016611     0.000004     NO 
 Predicted change in Energy=-5.662175D-06
 GradGradGradGradGradGradGradGradGradGradGradGradGradGradGradGradGradGrad

                          Input orientation:                          
 ---------------------------------------------------------------------
 Center     Atomic      Atomic             Coordinates (Angstroms)
 Number     Number       Type             X           Y           Z
 ---------------------------------------------------------------------
      1          8           0       -0.582841    0.433077    0.209537
      2          8           0        0.576025   -0.382848    0.304670
      3          1           0       -1.190088   -0.147902   -0.260918
      4          1           0        1.196904    0.097573   -0.253288
 ---------------------------------------------------------------------
                    Distance matrix (angstroms):
                    1          2          3          4
     1  O    0.000000
     2  O    1.420477   0.000000
     3  H    0.963126   1.869289   0.000000
     4  H    1.869295   0.963126   2.399593   0.000000
 Stoichiometry    H2O2
 Framework group  C1[X(H2O2)]
 Deg. of freedom     6
 Full point group                 C1      NOp   1
 Largest Abelian subgroup         C1      NOp   1
 Largest concise Abelian subgroup C1      NOp   1
                         Standard orientation:                         
 ---------------------------------------------------------------------
 Center     Atomic      Atomic             Coordinates (Angstroms)
 Number     Number       Type             X           Y           Z
 ---------------------------------------------------------------------
      1          8           0       -0.700860   -0.115039   -0.057411
      2          8           0        0.700860    0.115038   -0.057412
      3          1           0       -1.019386    0.632739    0.459291
      4          1           0        1.019392   -0.632736    0.459293
 ---------------------------------------------------------------------
 Rotational constants (GHZ):    308.4473848     27.4476208     26.5451644
 Standard basis: 6-311+G(2df,2p) (5D, 7F)
 There are    86 symmetry adapted basis functions of A   symmetry.
 Integral buffers will be    131072 words long.
 Raffenetti 2 integral format.
 Two-electron integral symmetry is turned on.
    86 basis functions,   126 primitive gaussians,    96 cartesian basis functions
     9 alpha electrons        9 beta electrons
       nuclear repulsion energy        37.3831863913 Hartrees.
 NAtoms=    4 NActive=    4 NUniq=    4 SFac= 1.00D+00 NAtFMM=   50 NAOKFM=F Big=F
 One-electron integrals computed using PRISM.
 NBasis=    86 RedAO= T  NBF=    86
 NBsUse=    86 1.00D-06 NBFU=    86
 Initial guess read from the read-write file.
 B after Tr=     0.000000    0.000000    0.000000
         Rot=    1.000000    0.000000    0.000000    0.000000 Ang=   0.00 deg.
 Initial guess orbital symmetries:
       Occupied  (A) (A) (A) (A) (A) (A) (A) (A) (A)
       Virtual   (A) (A) (A) (A) (A) (A) (A) (A) (A) (A) (A) (A)
                 (A) (A) (A) (A) (A) (A) (A) (A) (A) (A) (A) (A)
                 (A) (A) (A) (A) (A) (A) (A) (A) (A) (A) (A) (A)
                 (A) (A) (A) (A) (A) (A) (A) (A) (A) (A) (A) (A)
                 (A) (A) (A) (A) (A) (A) (A) (A) (A) (A) (A) (A)
                 (A) (A) (A) (A) (A) (A) (A) (A) (A) (A) (A) (A)
                 (A) (A) (A) (A) (A)
 Requested convergence on RMS density matrix=1.00D-08 within 128 cycles.
 Requested convergence on MAX density matrix=1.00D-06.
 Requested convergence on             energy=1.00D-06.
 No special actions if energy rises.
 Keep R1 ints in memory in canonical form, NReq=12863544.
 SCF Done:  E(RM062X) =  -151.544813004     A.U. after   13 cycles
             Convg  =    0.1649D-08             -V/T =  2.0026
 Calling FoFJK, ICntrl=      2127 FMM=F ISym2X=0 I1Cent= 0 IOpClX= 0 NMat=1 NMatS=1 NMatT=0.
 ***** Axes restored to original set *****
 -------------------------------------------------------------------
 Center     Atomic                   Forces (Hartrees/Bohr)
 Number     Number              X              Y              Z
 -------------------------------------------------------------------
      1        8           0.000167676   -0.000197647   -0.000023848
      2        8          -0.000165632    0.000188538   -0.000065505
      3        1           0.000054445    0.000019167    0.000043924
      4        1          -0.000056489   -0.000010059    0.000045429
 -------------------------------------------------------------------
 Cartesian Forces:  Max     0.000197647 RMS     0.000110165

 GradGradGradGradGradGradGradGradGradGradGradGradGradGradGradGradGradGrad
 Berny optimization.
 Using GDIIS optimizer.
 Internal  Forces:  Max     0.000271510 RMS     0.000119885
 Search for a local minimum.
 Step number   6 out of a maximum of   20
 All quantities printed in internal units (Hartrees-Bohrs-Radians)
 Swaping is turned off.
 Update second derivatives using D2CorX and points    1    2    3    4    5
                                                      6
 DE= -9.25D-06 DEPred=-5.66D-06 R= 1.63D+00
 SS=  1.41D+00  RLast= 4.63D-02 DXNew= 8.3827D-01 1.3897D-01
 Trust test= 1.63D+00 RLast= 4.63D-02 DXMaxT set to 4.98D-01
 The second derivative matrix:
                          R1        R2        R3        A1        A2
           R1           0.46548
           R2           0.04000   0.53568
           R3           0.04008   0.04341   0.53578
           A1           0.07608   0.00542   0.00544   0.20454
           A2           0.07609   0.00546   0.00549   0.04452   0.20451
           D1          -0.00108   0.00189   0.00190   0.00852   0.00854
                          D1
           D1           0.00839
 ITU=  1  1  1  1  1  0
     Eigenvalues ---    0.00767   0.16000   0.20498   0.47835   0.49231
     Eigenvalues ---    0.61106
 Cut down GDIIS permanently because of the redundancy. E 1
 DIIS coeff's:      1.17828     -0.31205      0.12911      0.00030      0.00436
 Cosine:  0.994 >  0.670
 Length:  1.289
 GDIIS step was calculated using  5 of the last  6 vectors.
 Iteration  1 RMS(Cart)=  0.00062569 RMS(Int)=  0.00000038
 Iteration  2 RMS(Cart)=  0.00000027 RMS(Int)=  0.00000000
 Variable       Old X    -DE/DX   Delta X   Delta X   Delta X     New X
                                  (DIIS)     (GDIIS)  (Total)
    R1        2.68431  -0.00027  -0.00073   0.00000  -0.00073   2.68358
    R2        1.82004  -0.00008  -0.00015   0.00000  -0.00015   1.81989
    R3        1.82005  -0.00008  -0.00015   0.00000  -0.00015   1.81989
    A1        1.77276  -0.00001   0.00010   0.00001   0.00011   1.77287
    A2        1.77277  -0.00002   0.00011  -0.00001   0.00010   1.77287
    D1        1.98256   0.00001   0.00163   0.00000   0.00163   1.98420
         Item               Value     Threshold  Converged?
 Maximum Force            0.000272     0.000002     NO 
 RMS     Force            0.000120     0.000001     NO 
 Maximum Displacement     0.000672     0.000006     NO 
 RMS     Displacement     0.000626     0.000004     NO 
 Predicted change in Energy=-8.190259D-08
 GradGradGradGradGradGradGradGradGradGradGradGradGradGradGradGradGradGrad

                          Input orientation:                          
 ---------------------------------------------------------------------
 Center     Atomic      Atomic             Coordinates (Angstroms)
 Number     Number       Type             X           Y           Z
 ---------------------------------------------------------------------
      1          8           0       -0.582594    0.433048    0.209190
      2          8           0        0.575790   -0.382889    0.304321
      3          1           0       -1.190224   -0.147965   -0.260563
      4          1           0        1.197028    0.097707   -0.252948
 ---------------------------------------------------------------------
                    Distance matrix (angstroms):
                    1          2          3          4
     1  O    0.000000
     2  O    1.420091   0.000000
     3  H    0.963046   1.868981   0.000000
     4  H    1.868978   0.963046   2.399872   0.000000
 Stoichiometry    H2O2
 Framework group  C1[X(H2O2)]
 Deg. of freedom     6
 Full point group                 C1      NOp   1
 Largest Abelian subgroup         C1      NOp   1
 Largest concise Abelian subgroup C1      NOp   1
                         Standard orientation:                         
 ---------------------------------------------------------------------
 Center     Atomic      Atomic             Coordinates (Angstroms)
 Number     Number       Type             X           Y           Z
 ---------------------------------------------------------------------
      1          8           0        0.700652    0.115113   -0.057334
      2          8           0       -0.700652   -0.115113   -0.057334
      3          1           0        1.019432   -0.632935    0.458672
      4          1           0       -1.019429    0.632937    0.458670
 ---------------------------------------------------------------------
 Rotational constants (GHZ):    308.5302537     27.4631145     26.5564501
 Standard basis: 6-311+G(2df,2p) (5D, 7F)
 There are    86 symmetry adapted basis functions of A   symmetry.
 Integral buffers will be    131072 words long.
 Raffenetti 2 integral format.
 Two-electron integral symmetry is turned on.
    86 basis functions,   126 primitive gaussians,    96 cartesian basis functions
     9 alpha electrons        9 beta electrons
       nuclear repulsion energy        37.3911277055 Hartrees.
 NAtoms=    4 NActive=    4 NUniq=    4 SFac= 1.00D+00 NAtFMM=   50 NAOKFM=F Big=F
 One-electron integrals computed using PRISM.
 NBasis=    86 RedAO= T  NBF=    86
 NBsUse=    86 1.00D-06 NBFU=    86
 Initial guess read from the read-write file.
 B after Tr=     0.000000    0.000000    0.000000
         Rot=    1.000000    0.000000    0.000000    0.000000 Ang=   0.00 deg.
 Initial guess orbital symmetries:
       Occupied  (A) (A) (A) (A) (A) (A) (A) (A) (A)
       Virtual   (A) (A) (A) (A) (A) (A) (A) (A) (A) (A) (A) (A)
                 (A) (A) (A) (A) (A) (A) (A) (A) (A) (A) (A) (A)
                 (A) (A) (A) (A) (A) (A) (A) (A) (A) (A) (A) (A)
                 (A) (A) (A) (A) (A) (A) (A) (A) (A) (A) (A) (A)
                 (A) (A) (A) (A) (A) (A) (A) (A) (A) (A) (A) (A)
                 (A) (A) (A) (A) (A) (A) (A) (A) (A) (A) (A) (A)
                 (A) (A) (A) (A) (A)
 Requested convergence on RMS density matrix=1.00D-08 within 128 cycles.
 Requested convergence on MAX density matrix=1.00D-06.
 Requested convergence on             energy=1.00D-06.
 No special actions if energy rises.
 Keep R1 ints in memory in canonical form, NReq=12863544.
 SCF Done:  E(RM062X) =  -151.544813126     A.U. after   13 cycles
             Convg  =    0.1615D-08             -V/T =  2.0026
 Calling FoFJK, ICntrl=      2127 FMM=F ISym2X=0 I1Cent= 0 IOpClX= 0 NMat=1 NMatS=1 NMatT=0.
 ***** Axes restored to original set *****
 -------------------------------------------------------------------
 Center     Atomic                   Forces (Hartrees/Bohr)
 Number     Number              X              Y              Z
 -------------------------------------------------------------------
      1        8          -0.000000863   -0.000019434    0.000004266
      2        8           0.000000478    0.000020123    0.000000081
      3        1           0.000005353   -0.000018131   -0.000000377
      4        1          -0.000004968    0.000017441   -0.000003969
 -------------------------------------------------------------------
 Cartesian Forces:  Max     0.000020123 RMS     0.000011195

 GradGradGradGradGradGradGradGradGradGradGradGradGradGradGradGradGradGrad
 Berny optimization.
 Using GDIIS optimizer.
 Internal  Forces:  Max     0.000011789 RMS     0.000005831
 Search for a local minimum.
 Step number   7 out of a maximum of   20
 All quantities printed in internal units (Hartrees-Bohrs-Radians)
 Swaping is turned off.
 Update second derivatives using D2CorX and points    1    2    3    4    5
                                                      6    7
 DE= -1.22D-07 DEPred=-8.19D-08 R= 1.49D+00
 Trust test= 1.49D+00 RLast= 1.81D-03 DXMaxT set to 4.98D-01
 The second derivative matrix:
                          R1        R2        R3        A1        A2
           R1           0.37793
           R2          -0.00872   0.51922
           R3          -0.00868   0.02694   0.51928
           A1           0.07314  -0.00216  -0.00214   0.20513
           A2           0.07372  -0.00192  -0.00191   0.04515   0.20518
           D1          -0.00122   0.00100   0.00100   0.00824   0.00819
                          D1
           D1           0.00849
 ITU=  0  1  1  1  1  1  0
     Eigenvalues ---    0.00782   0.16000   0.19284   0.43461   0.49231
     Eigenvalues ---    0.54766
 Cut down GDIIS permanently because of the redundancy. E 1
 DIIS coeff's:      0.93317      0.07618     -0.03597      0.02817     -0.00154
 Cosine:  1.000 >  0.670
 Length:  0.891
 GDIIS step was calculated using  5 of the last  7 vectors.
 Iteration  1 RMS(Cart)=  0.00030618 RMS(Int)=  0.00000009
 Iteration  2 RMS(Cart)=  0.00000006 RMS(Int)=  0.00000000
 Variable       Old X    -DE/DX   Delta X   Delta X   Delta X     New X
                                  (DIIS)     (GDIIS)  (Total)
    R1        2.68358  -0.00001  -0.00005   0.00000  -0.00005   2.68353
    R2        1.81989   0.00000   0.00000   0.00000   0.00000   1.81989
    R3        1.81989   0.00000   0.00000   0.00000   0.00000   1.81989
    A1        1.77287   0.00000   0.00004   0.00000   0.00004   1.77291
    A2        1.77287   0.00000   0.00004   0.00000   0.00004   1.77291
    D1        1.98420  -0.00001  -0.00084   0.00000  -0.00084   1.98336
         Item               Value     Threshold  Converged?
 Maximum Force            0.000012     0.000002     NO 
 RMS     Force            0.000006     0.000001     NO 
 Maximum Displacement     0.000320     0.000006     NO 
 RMS     Displacement     0.000306     0.000004     NO 
 Predicted change in Energy=-3.675503D-09
 GradGradGradGradGradGradGradGradGradGradGradGradGradGradGradGradGradGrad

                          Input orientation:                          
 ---------------------------------------------------------------------
 Center     Atomic      Atomic             Coordinates (Angstroms)
 Number     Number       Type             X           Y           Z
 ---------------------------------------------------------------------
      1          8           0       -0.582634    0.432991    0.209360
      2          8           0        0.575824   -0.382800    0.304476
      3          1           0       -1.190098   -0.147921   -0.260729
      4          1           0        1.196907    0.097630   -0.253106
 ---------------------------------------------------------------------
                    Distance matrix (angstroms):
                    1          2          3          4
     1  O    0.000000
     2  O    1.420065   0.000000
     3  H    0.963045   1.868985   0.000000
     4  H    1.868986   0.963045   2.399614   0.000000
 Stoichiometry    H2O2
 Framework group  C1[X(H2O2)]
 Deg. of freedom     6
 Full point group                 C1      NOp   1
 Largest Abelian subgroup         C1      NOp   1
 Largest concise Abelian subgroup C1      NOp   1
                         Standard orientation:                         
 ---------------------------------------------------------------------
 Center     Atomic      Atomic             Coordinates (Angstroms)
 Number     Number       Type             X           Y           Z
 ---------------------------------------------------------------------
      1          8           0       -0.700645   -0.115077   -0.057370
      2          8           0        0.700645    0.115077   -0.057370
      3          1           0       -1.019388    0.632760    0.458961
      4          1           0        1.019389   -0.632759    0.458961
 ---------------------------------------------------------------------
 Rotational constants (GHZ):    308.5322486     27.4629952     26.5581344
 Standard basis: 6-311+G(2df,2p) (5D, 7F)
 There are    86 symmetry adapted basis functions of A   symmetry.
 Integral buffers will be    131072 words long.
 Raffenetti 2 integral format.
 Two-electron integral symmetry is turned on.
    86 basis functions,   126 primitive gaussians,    96 cartesian basis functions
     9 alpha electrons        9 beta electrons
       nuclear repulsion energy        37.3915827700 Hartrees.
 NAtoms=    4 NActive=    4 NUniq=    4 SFac= 1.00D+00 NAtFMM=   50 NAOKFM=F Big=F
 One-electron integrals computed using PRISM.
 NBasis=    86 RedAO= T  NBF=    86
 NBsUse=    86 1.00D-06 NBFU=    86
 Initial guess read from the read-write file.
 B after Tr=     0.000000    0.000000    0.000000
         Rot=    1.000000    0.000000    0.000000    0.000000 Ang=   0.00 deg.
 Initial guess orbital symmetries:
       Occupied  (A) (A) (A) (A) (A) (A) (A) (A) (A)
       Virtual   (A) (A) (A) (A) (A) (A) (A) (A) (A) (A) (A) (A)
                 (A) (A) (A) (A) (A) (A) (A) (A) (A) (A) (A) (A)
                 (A) (A) (A) (A) (A) (A) (A) (A) (A) (A) (A) (A)
                 (A) (A) (A) (A) (A) (A) (A) (A) (A) (A) (A) (A)
                 (A) (A) (A) (A) (A) (A) (A) (A) (A) (A) (A) (A)
                 (A) (A) (A) (A) (A) (A) (A) (A) (A) (A) (A) (A)
                 (A) (A) (A) (A) (A)
 Requested convergence on RMS density matrix=1.00D-08 within 128 cycles.
 Requested convergence on MAX density matrix=1.00D-06.
 Requested convergence on             energy=1.00D-06.
 No special actions if energy rises.
 Keep R1 ints in memory in canonical form, NReq=12863544.
 SCF Done:  E(RM062X) =  -151.544813121     A.U. after   13 cycles
             Convg  =    0.1610D-08             -V/T =  2.0026
 Calling FoFJK, ICntrl=      2127 FMM=F ISym2X=0 I1Cent= 0 IOpClX= 0 NMat=1 NMatS=1 NMatT=0.
 ***** Axes restored to original set *****
 -------------------------------------------------------------------
 Center     Atomic                   Forces (Hartrees/Bohr)
 Number     Number              X              Y              Z
 -------------------------------------------------------------------
      1        8          -0.000006444   -0.000010480    0.000001531
      2        8           0.000006497    0.000010536   -0.000000268
      3        1           0.000002042   -0.000020422    0.000001396
      4        1          -0.000002095    0.000020367   -0.000002659
 -------------------------------------------------------------------
 Cartesian Forces:  Max     0.000020422 RMS     0.000009817

 GradGradGradGradGradGradGradGradGradGradGradGradGradGradGradGradGradGrad
 Berny optimization.
 Using GDIIS optimizer.
 Internal  Forces:  Max     0.000000976 RMS     0.000000540
 Search for a local minimum.
 Step number   8 out of a maximum of   20
 All quantities printed in internal units (Hartrees-Bohrs-Radians)
 Swaping is turned off.
 Update second derivatives using D2CorX and points    2    3    4    5    6
                                                      7    8
 DE=  4.70D-09 DEPred=-3.68D-09 R=-1.28D+00
 Trust test=-1.28D+00 RLast= 8.42D-04 DXMaxT set to 2.49D-01
 The second derivative matrix:
                          R1        R2        R3        A1        A2
           R1           0.37687
           R2          -0.00643   0.51840
           R3          -0.00641   0.02611   0.51845
           A1           0.07473  -0.00198  -0.00196   0.20568
           A2           0.07462  -0.00196  -0.00193   0.04565   0.20571
           D1          -0.00145   0.00156   0.00155   0.00874   0.00846
                          D1
           D1           0.00841
 ITU= -1  0  1  1  1  1  1
     Eigenvalues ---    0.00765   0.16004   0.19195   0.43612   0.49231
     Eigenvalues ---    0.54544
 Cut down GDIIS permanently because of the redundancy. E 1
 DIIS coeff's:      1.25557     -0.25905      0.00412      0.00052     -0.00116
 Cosine:  1.000 >  0.500
 Length:  1.055
 GDIIS step was calculated using  5 of the last  7 vectors.
 Iteration  1 RMS(Cart)=  0.00004956 RMS(Int)=  0.00000000
 Iteration  2 RMS(Cart)=  0.00000000 RMS(Int)=  0.00000000
 Variable       Old X    -DE/DX   Delta X   Delta X   Delta X     New X
                                  (DIIS)     (GDIIS)  (Total)
    R1        2.68353   0.00000   0.00000   0.00000  -0.00001   2.68353
    R2        1.81989   0.00000   0.00000   0.00000   0.00000   1.81989
    R3        1.81989   0.00000   0.00000   0.00000   0.00000   1.81989
    A1        1.77291   0.00000   0.00001   0.00000   0.00001   1.77292
    A2        1.77291   0.00000   0.00001   0.00000   0.00001   1.77292
    D1        1.98336   0.00000  -0.00014   0.00000  -0.00014   1.98322
         Item               Value     Threshold  Converged?
 Maximum Force            0.000001     0.000002     YES
 RMS     Force            0.000001     0.000001     YES
 Maximum Displacement     0.000052     0.000006     NO 
 RMS     Displacement     0.000050     0.000004     NO 
 Predicted change in Energy=-6.502255D-11
 GradGradGradGradGradGradGradGradGradGradGradGradGradGradGradGradGradGrad

                          Input orientation:                          
 ---------------------------------------------------------------------
 Center     Atomic      Atomic             Coordinates (Angstroms)
 Number     Number       Type             X           Y           Z
 ---------------------------------------------------------------------
      1          8           0       -0.582640    0.432982    0.209387
      2          8           0        0.575830   -0.382786    0.304502
      3          1           0       -1.190079   -0.147913   -0.260757
      4          1           0        1.196888    0.097618   -0.253132
 ---------------------------------------------------------------------
                    Distance matrix (angstroms):
                    1          2          3          4
     1  O    0.000000
     2  O    1.420063   0.000000
     3  H    0.963045   1.868988   0.000000
     4  H    1.868988   0.963045   2.399574   0.000000
 Stoichiometry    H2O2
 Framework group  C1[X(H2O2)]
 Deg. of freedom     6
 Full point group                 C1      NOp   1
 Largest Abelian subgroup         C1      NOp   1
 Largest concise Abelian subgroup C1      NOp   1
                         Standard orientation:                         
 ---------------------------------------------------------------------
 Center     Atomic      Atomic             Coordinates (Angstroms)
 Number     Number       Type             X           Y           Z
 ---------------------------------------------------------------------
      1          8           0        0.700645    0.115072   -0.057376
      2          8           0       -0.700645   -0.115072   -0.057376
      3          1           0        1.019382   -0.632731    0.459008
      4          1           0       -1.019382    0.632732    0.459008
 ---------------------------------------------------------------------
 Rotational constants (GHZ):    308.5320049     27.4629214     26.5583556
 Standard basis: 6-311+G(2df,2p) (5D, 7F)
 There are    86 symmetry adapted basis functions of A   symmetry.
 Integral buffers will be    131072 words long.
 Raffenetti 2 integral format.
 Two-electron integral symmetry is turned on.
    86 basis functions,   126 primitive gaussians,    96 cartesian basis functions
     9 alpha electrons        9 beta electrons
       nuclear repulsion energy        37.3916210151 Hartrees.
 NAtoms=    4 NActive=    4 NUniq=    4 SFac= 1.00D+00 NAtFMM=   50 NAOKFM=F Big=F
 One-electron integrals computed using PRISM.
 NBasis=    86 RedAO= T  NBF=    86
 NBsUse=    86 1.00D-06 NBFU=    86
 Initial guess read from the read-write file.
 B after Tr=     0.000000    0.000000    0.000000
         Rot=    1.000000    0.000000    0.000000    0.000000 Ang=   0.00 deg.
 Initial guess orbital symmetries:
       Occupied  (A) (A) (A) (A) (A) (A) (A) (A) (A)
       Virtual   (A) (A) (A) (A) (A) (A) (A) (A) (A) (A) (A) (A)
                 (A) (A) (A) (A) (A) (A) (A) (A) (A) (A) (A) (A)
                 (A) (A) (A) (A) (A) (A) (A) (A) (A) (A) (A) (A)
                 (A) (A) (A) (A) (A) (A) (A) (A) (A) (A) (A) (A)
                 (A) (A) (A) (A) (A) (A) (A) (A) (A) (A) (A) (A)
                 (A) (A) (A) (A) (A) (A) (A) (A) (A) (A) (A) (A)
                 (A) (A) (A) (A) (A)
 Requested convergence on RMS density matrix=1.00D-08 within 128 cycles.
 Requested convergence on MAX density matrix=1.00D-06.
 Requested convergence on             energy=1.00D-06.
 No special actions if energy rises.
 Keep R1 ints in memory in canonical form, NReq=12863544.
 SCF Done:  E(RM062X) =  -151.544813120     A.U. after   13 cycles
             Convg  =    0.1611D-08             -V/T =  2.0026
 Calling FoFJK, ICntrl=      2127 FMM=F ISym2X=0 I1Cent= 0 IOpClX= 0 NMat=1 NMatS=1 NMatT=0.
 ***** Axes restored to original set *****
 -------------------------------------------------------------------
 Center     Atomic                   Forces (Hartrees/Bohr)
 Number     Number              X              Y              Z
 -------------------------------------------------------------------
      1        8          -0.000007142   -0.000009859    0.000000867
      2        8           0.000007085    0.000009906   -0.000000944
      3        1           0.000002130   -0.000020460    0.000002060
      4        1          -0.000002073    0.000020413   -0.000001984
 -------------------------------------------------------------------
 Cartesian Forces:  Max     0.000020460 RMS     0.000009791

 GradGradGradGradGradGradGradGradGradGradGradGradGradGradGradGradGradGrad
 Berny optimization.
 Using GDIIS optimizer.
 Internal  Forces:  Max     0.000000076 RMS     0.000000054
 Search for a local minimum.
 Step number   9 out of a maximum of   20
 All quantities printed in internal units (Hartrees-Bohrs-Radians)
 Swaping is turned off.
 Update second derivatives using D2CorX and points    3    4    5    6    7
                                                      8    9
 DE=  1.28D-09 DEPred=-6.50D-11 R=-1.96D+01
 Trust test=-1.96D+01 RLast= 1.37D-04 DXMaxT set to 1.25D-01
 The second derivative matrix:
                          R1        R2        R3        A1        A2
           R1           0.37677
           R2          -0.00631   0.51358
           R3          -0.00627   0.02129   0.51363
           A1           0.07431  -0.00578  -0.00577   0.20279
           A2           0.07511  -0.00548  -0.00545   0.04293   0.20358
           D1          -0.00148   0.00121   0.00122   0.00798   0.00859
                          D1
           D1           0.00837
 ITU= -1 -1  0  1  1  1  1
     Eigenvalues ---    0.00765   0.16025   0.18781   0.43398   0.49231
     Eigenvalues ---    0.53671
 Cut down GDIIS permanently because of the redundancy. E 1
 DIIS coeff's:      0.74934      0.31631     -0.06664      0.00126      0.00006
 DIIS coeff's:     -0.00033
 Cosine:  1.000 >  0.500
 Length:  0.729
 GDIIS step was calculated using  6 of the last  7 vectors.
 Iteration  1 RMS(Cart)=  0.00000183 RMS(Int)=  0.00000000
 Iteration  2 RMS(Cart)=  0.00000000 RMS(Int)=  0.00000000
 Variable       Old X    -DE/DX   Delta X   Delta X   Delta X     New X
                                  (DIIS)     (GDIIS)  (Total)
    R1        2.68353   0.00000   0.00000   0.00000   0.00000   2.68353
    R2        1.81989   0.00000   0.00000   0.00000   0.00000   1.81989
    R3        1.81989   0.00000   0.00000   0.00000   0.00000   1.81989
    A1        1.77292   0.00000   0.00000   0.00000   0.00000   1.77292
    A2        1.77292   0.00000   0.00000   0.00000   0.00000   1.77292
    D1        1.98322   0.00000   0.00001   0.00000   0.00001   1.98323
         Item               Value     Threshold  Converged?
 Maximum Force            0.000000     0.000002     YES
 RMS     Force            0.000000     0.000001     YES
 Maximum Displacement     0.000002     0.000006     YES
 RMS     Displacement     0.000002     0.000004     YES
 Predicted change in Energy=-2.071053D-13
 Optimization completed.
    -- Stationary point found.
                           ----------------------------
                           !   Optimized Parameters   !
                           ! (Angstroms and Degrees)  !
 --------------------------                            --------------------------
 ! Name  Definition              Value          Derivative Info.                !
 --------------------------------------------------------------------------------
 ! R1    R(1,2)                  1.4201         -DE/DX =    0.0                 !
 ! R2    R(1,3)                  0.963          -DE/DX =    0.0                 !
 ! R3    R(2,4)                  0.963          -DE/DX =    0.0                 !
 ! A1    A(2,1,3)              101.5808         -DE/DX =    0.0                 !
 ! A2    A(1,2,4)              101.5807         -DE/DX =    0.0                 !
 ! D1    D(3,1,2,4)            113.6303         -DE/DX =    0.0                 !
 --------------------------------------------------------------------------------
 GradGradGradGradGradGradGradGradGradGradGradGradGradGradGradGradGradGrad

                          Input orientation:                          
 ---------------------------------------------------------------------
 Center     Atomic      Atomic             Coordinates (Angstroms)
 Number     Number       Type             X           Y           Z
 ---------------------------------------------------------------------
      1          8           0       -0.582640    0.432982    0.209387
      2          8           0        0.575830   -0.382786    0.304502
      3          1           0       -1.190079   -0.147913   -0.260757
      4          1           0        1.196888    0.097618   -0.253132
 ---------------------------------------------------------------------
                    Distance matrix (angstroms):
                    1          2          3          4
     1  O    0.000000
     2  O    1.420063   0.000000
     3  H    0.963045   1.868988   0.000000
     4  H    1.868988   0.963045   2.399574   0.000000
 Stoichiometry    H2O2
 Framework group  C1[X(H2O2)]
 Deg. of freedom     6
 Full point group                 C1      NOp   1
 Largest Abelian subgroup         C1      NOp   1
 Largest concise Abelian subgroup C1      NOp   1
                         Standard orientation:                         
 ---------------------------------------------------------------------
 Center     Atomic      Atomic             Coordinates (Angstroms)
 Number     Number       Type             X           Y           Z
 ---------------------------------------------------------------------
      1          8           0        0.700645    0.115072   -0.057376
      2          8           0       -0.700645   -0.115072   -0.057376
      3          1           0        1.019382   -0.632731    0.459008
      4          1           0       -1.019382    0.632732    0.459008
 ---------------------------------------------------------------------
 Rotational constants (GHZ):    308.5320049     27.4629214     26.5583556

 **********************************************************************

            Population analysis using the SCF density.

 **********************************************************************

 Orbital symmetries:
[...]
 Raffenetti 2 integral format.
 Two-electron integral symmetry is turned on.
    86 basis functions,   126 primitive gaussians,    96 cartesian basis functions
     9 alpha electrons        9 beta electrons
       nuclear repulsion energy        37.3916210151 Hartrees.
 NAtoms=    4 NActive=    4 NUniq=    4 SFac= 1.00D+00 NAtFMM=   50 NAOKFM=F Big=F
 One-electron integrals computed using PRISM.
 NBasis=    86 RedAO= T  NBF=    86
 NBsUse=    86 1.00D-06 NBFU=    86
 Initial guess read from the checkpoint file:  /home/harms.n/Code/RMG-Py/scripts/Gau-9374.chk
 B after Tr=     0.000000    0.000000    0.000000
         Rot=    1.000000    0.000000    0.000000    0.000000 Ang=   0.00 deg.
 Initial guess orbital symmetries:
       Occupied  (A) (A) (A) (A) (A) (A) (A) (A) (A)
       Virtual   (A) (A) (A) (A) (A) (A) (A) (A) (A) (A) (A) (A)
                 (A) (A) (A) (A) (A) (A) (A) (A) (A) (A) (A) (A)
                 (A) (A) (A) (A) (A) (A) (A) (A) (A) (A) (A) (A)
                 (A) (A) (A) (A) (A) (A) (A) (A) (A) (A) (A) (A)
                 (A) (A) (A) (A) (A) (A) (A) (A) (A) (A) (A) (A)
                 (A) (A) (A) (A) (A) (A) (A) (A) (A) (A) (A) (A)
                 (A) (A) (A) (A) (A)
 Requested convergence on RMS density matrix=1.00D-08 within 128 cycles.
 Requested convergence on MAX density matrix=1.00D-06.
 Requested convergence on             energy=1.00D-06.
 No special actions if energy rises.
 Keep R1 ints in memory in canonical form, NReq=12863544.
 SCF Done:  E(RM062X) =  -151.544813120     A.U. after    1 cycles
             Convg  =    0.2065D-09             -V/T =  2.0026
 Range of M.O.s used for correlation:     1    86
 NBasis=    86 NAE=     9 NBE=     9 NFC=     0 NFV=     0
 NROrb=     86 NOA=     9 NOB=     9 NVA=    77 NVB=    77

 **** Warning!!: The largest alpha MO coefficient is  0.13834485D+02

 Symmetrizing basis deriv contribution to polar:
 IMax=3 JMax=2 DiffMx= 0.00D+00
 G2DrvN: will do     5 centers at a time, making    1 passes doing MaxLOS=3.
 Calling FoFCou, ICntrl=  3107 FMM=F I1Cent=   0 AccDes= 0.00D+00.
 FoFDir/FoFCou used for L=0 through L=3.
 End of G2Drv Frequency-dependent properties file   721 does not exist.
 End of G2Drv Frequency-dependent properties file   722 does not exist.
          IDoAtm=1111
          Differentiating once with respect to electric field.
                with respect to dipole field.
          Differentiating once with respect to nuclear coordinates.
          Keep R1 ints in memory in canonical form, NReq=12783102.
          There are    15 degrees of freedom in the 1st order CPHF.  IDoFFX=5.
     12 vectors produced by pass  0 Test12= 4.62D-15 6.67D-09 XBig12= 6.28D+00 1.30D+00.
 AX will form    12 AO Fock derivatives at one time.
     12 vectors produced by pass  1 Test12= 4.62D-15 6.67D-09 XBig12= 1.02D+00 3.63D-01.
     12 vectors produced by pass  2 Test12= 4.62D-15 6.67D-09 XBig12= 4.02D-02 7.70D-02.
     12 vectors produced by pass  3 Test12= 4.62D-15 6.67D-09 XBig12= 4.98D-04 5.54D-03.
     12 vectors produced by pass  4 Test12= 4.62D-15 6.67D-09 XBig12= 2.56D-06 6.04D-04.
     12 vectors produced by pass  5 Test12= 4.62D-15 6.67D-09 XBig12= 1.07D-08 3.29D-05.
     11 vectors produced by pass  6 Test12= 4.62D-15 6.67D-09 XBig12= 2.64D-11 1.78D-06.
      3 vectors produced by pass  7 Test12= 4.62D-15 6.67D-09 XBig12= 6.74D-14 7.65D-08.
 Inverted reduced A of dimension    86 with in-core refinement.
 Isotropic polarizability for W=    0.000000       13.10 Bohr**3.
 End of Minotr Frequency-dependent properties file   721 does not exist.
 End of Minotr Frequency-dependent properties file   722 does not exist.

 **********************************************************************

            Population analysis using the SCF density.

 **********************************************************************

 Orbital symmetries:
       Occupied  (A) (A) (A) (A) (A) (A) (A) (A) (A)
       Virtual   (A) (A) (A) (A) (A) (A) (A) (A) (A) (A) (A) (A)
                 (A) (A) (A) (A) (A) (A) (A) (A) (A) (A) (A) (A)
                 (A) (A) (A) (A) (A) (A) (A) (A) (A) (A) (A) (A)
                 (A) (A) (A) (A) (A) (A) (A) (A) (A) (A) (A) (A)
                 (A) (A) (A) (A) (A) (A) (A) (A) (A) (A) (A) (A)
                 (A) (A) (A) (A) (A) (A) (A) (A) (A) (A) (A) (A)
                 (A) (A) (A) (A) (A)
 The electronic state is 1-A.
 Alpha  occ. eigenvalues --  -19.68805 -19.68787  -1.26797  -1.01802  -0.62400
 Alpha  occ. eigenvalues --   -0.59309  -0.51886  -0.41023  -0.37252
 Alpha virt. eigenvalues --    0.05149   0.06236   0.12265   0.16082   0.18181
 Alpha virt. eigenvalues --    0.18810   0.20709   0.20872   0.21764   0.28434
 Alpha virt. eigenvalues --    0.33603   0.50180   0.51459   0.68620   0.69266
 Alpha virt. eigenvalues --    0.78693   0.83177   0.88409   0.91482   0.97249
 Alpha virt. eigenvalues --    1.08839   1.10872   1.12048   1.33880   1.38620
 Alpha virt. eigenvalues --    1.39521   1.50381   1.55537   1.57926   1.77161
 Alpha virt. eigenvalues --    1.85652   1.90136   2.14122   2.18287   2.19855
 Alpha virt. eigenvalues --    2.28796   2.53324   2.67499   2.71895   3.58154
 Alpha virt. eigenvalues --    3.66658   3.67364   3.81079   4.12710   4.12964
 Alpha virt. eigenvalues --    4.54191   4.57831   4.62077   4.81371   4.88952
 Alpha virt. eigenvalues --    5.08212   5.09323   5.17808   5.20328   5.22422
 Alpha virt. eigenvalues --    5.30461   5.44410   5.50572   5.55553   5.65189
 Alpha virt. eigenvalues --    5.98709   5.98737   6.69102   6.81036   6.86193
 Alpha virt. eigenvalues --    6.88428   6.92239   7.05179   7.14141   7.21780
 Alpha virt. eigenvalues --    7.25341   7.39760   7.44132   7.67032   7.91706
 Alpha virt. eigenvalues --   49.96929  49.97037
          Condensed to atoms (all electrons):
              1          2          3          4
     1  O    7.947670   0.132832   0.237444  -0.051621
     2  O    0.132832   7.947670  -0.051621   0.237444
     3  H    0.237444  -0.051621   0.540521   0.007331
     4  H   -0.051621   0.237444   0.007331   0.540521
 Mulliken atomic charges:
              1
     1  O   -0.266325
     2  O   -0.266324
     3  H    0.266325
     4  H    0.266325
 Sum of Mulliken atomic charges =   0.00000
 Mulliken charges with hydrogens summed into heavy atoms:
              1
     1  O    0.000000
     2  O    0.000000
 Sum of Mulliken charges with hydrogens summed into heavy atoms =   0.00000
 APT atomic charges:
              1
     1  O   -0.269988
     2  O   -0.269988
     3  H    0.269988
     4  H    0.269988
 Sum of APT charges=   0.00000
 APT Atomic charges with hydrogens summed into heavy atoms:
              1
     1  O    0.000000
     2  O    0.000000
     3  H    0.000000
     4  H    0.000000
 Sum of APT charges=   0.00000
 Electronic spatial extent (au):  <R**2>=             65.3979
 Charge=              0.0000 electrons
 Dipole moment (field-independent basis, Debye):
    X=              0.0000    Y=              0.0000    Z=              1.8205  Tot=              1.8205
 Quadrupole moment (field-independent basis, Debye-Ang):
   XX=            -10.4858   YY=            -10.7455   ZZ=            -11.8817
   XY=             -3.1699   XZ=              0.0000   YZ=              0.0000
 Traceless Quadrupole moment (field-independent basis, Debye-Ang):
   XX=              0.5518   YY=              0.2922   ZZ=             -0.8441
   XY=             -3.1699   XZ=              0.0000   YZ=              0.0000
 Octapole moment (field-independent basis, Debye-Ang**2):
  XXX=              0.0000  YYY=              0.0000  ZZZ=              1.1070  XYY=              0.0000
  XXY=              0.0000  XXZ=              2.5465  XZZ=              0.0000  YZZ=              0.0000
  YYZ=              0.9361  XYZ=             -1.5724
 Hexadecapole moment (field-independent basis, Debye-Ang**3):
 XXXX=            -42.7883 YYYY=            -11.7100 ZZZZ=            -11.4035 XXXY=             -4.3326
 XXXZ=              0.0000 YYYX=             -2.7959 YYYZ=              0.0000 ZZZX=              0.0000
 ZZZY=              0.0000 XXYY=             -8.8082 XXZZ=             -9.7941 YYZZ=             -3.5442
 XXYZ=              0.0000 YYXZ=              0.0000 ZZXY=             -1.1672
 N-N= 3.739162101505D+01 E-N=-4.335683571604D+02  KE= 1.511474210046D+02
  Exact polarizability:  16.978  -0.895  11.533   0.000   0.000  10.803
 Approx polarizability:  18.321  -0.678  12.728   0.000   0.000  11.526
 Calling FoFJK, ICntrl=    100127 FMM=F ISym2X=0 I1Cent= 0 IOpClX= 0 NMat=1 NMatS=1 NMatT=0.
 Full mass-weighted force constant matrix:
 Low frequencies ---  -99.3462    0.0007    0.0012    0.0014   42.6892   47.6265
 Low frequencies ---  385.0503 1048.0031 1369.6395
 Harmonic frequencies (cm**-1), IR intensities (KM/Mole), Raman scattering
 activities (A**4/AMU), depolarization ratios for plane and unpolarized
 incident light, reduced masses (AMU), force constants (mDyne/A),
 and normal coordinates:
                     1                      2                      3
                     A                      A                      A
 Frequencies --   385.0294              1048.0028              1369.6372
 Red. masses --     1.0831                14.5991                 1.1078
 Frc consts  --     0.0946                 9.4471                 1.2244
 IR Inten    --   189.4261                 0.8651                99.9458
  Atom  AN      X      Y      Z        X      Y      Z        X      Y      Z
     1   8     0.00   0.03   0.04     0.66   0.12  -0.01     0.04   0.01  -0.04
     2   8     0.00  -0.03   0.04    -0.66  -0.12  -0.01     0.04   0.01   0.04
     3   1     0.04  -0.38  -0.59    -0.04  -0.06   0.20    -0.67  -0.21   0.07
     4   1    -0.04   0.38  -0.59     0.04   0.06   0.20    -0.67  -0.21  -0.07
                     4                      5                      6
                     A                      A                      A
 Frequencies --  1485.2268              3855.9292              3856.6745
 Red. masses --     1.0923                 1.0673                 1.0695
 Frc consts  --     1.4196                 9.3495                 9.3722
 IR Inten    --     0.3113                78.8269                22.2232
  Atom  AN      X      Y      Z        X      Y      Z        X      Y      Z
     1   8     0.01  -0.05   0.01    -0.01   0.03  -0.02    -0.02   0.04  -0.02
     2   8    -0.01   0.05   0.01    -0.01   0.03   0.02     0.02  -0.04  -0.02
     3   1     0.68   0.16  -0.09     0.23  -0.55   0.38     0.23  -0.55   0.38
     4   1    -0.68  -0.16  -0.09     0.23  -0.55  -0.38    -0.23   0.55   0.38

 -------------------
 - Thermochemistry -
 -------------------
 Temperature   298.150 Kelvin.  Pressure   1.00000 Atm.
 Atom     1 has atomic number  8 and mass  15.99491
 Atom     2 has atomic number  8 and mass  15.99491
 Atom     3 has atomic number  1 and mass   1.00783
 Atom     4 has atomic number  1 and mass   1.00783
 Molecular mass:    34.00548 amu.
 Principal axes and moments of inertia in atomic units:
                           1         2         3
     Eigenvalues --     5.84945  65.71556  67.95380
           X            0.99707  -0.07652   0.00000
           Y            0.07652   0.99707   0.00000
           Z            0.00000   0.00000   1.00000
 This molecule is an asymmetric top.
 Rotational symmetry number  1.
 Rotational temperatures (Kelvin)     14.80718     1.31801     1.27460
 Rotational constants (GHZ):         308.53200    27.46292    26.55836
 Zero-point vibrational energy      71778.9 (Joules/Mol)
                                   17.15558 (Kcal/Mol)
 Warning -- explicit consideration of   1 degrees of freedom as
           vibrations may cause significant error
 Vibrational temperatures:    553.97  1507.84  1970.60  2136.91  5547.82
          (Kelvin)           5548.89
 
 Zero-point correction=                           0.027339 (Hartree/Particle)
 Thermal correction to Energy=                    0.030540
 Thermal correction to Enthalpy=                  0.031484
 Thermal correction to Gibbs Free Energy=         0.005095
 Sum of electronic and zero-point Energies=           -151.517474
 Sum of electronic and thermal Energies=              -151.514273
 Sum of electronic and thermal Enthalpies=            -151.513329
 Sum of electronic and thermal Free Energies=         -151.539718
 
                     E (Thermal)             CV                S
                      KCal/Mol        Cal/Mol-Kelvin    Cal/Mol-Kelvin
 Total                   19.164              7.987             55.540
 Electronic               0.000              0.000              0.000
 Translational            0.889              2.981             36.503
 Rotational               0.889              2.981             17.908
 Vibrational             17.387              2.026              1.129
 Vibration     1          0.754              1.502              1.019
                       Q            Log10(Q)             Ln(Q)
 Total Bot       0.453267D-02         -2.343646         -5.396444
 Total V=0       0.170398D+11         10.231463         23.558815
 Vib (Bot)       0.317856D-12        -12.497769        -28.777177
 Vib (Bot)    1  0.467931D+00         -0.329818         -0.759434
 Vib (V=0)       0.119492D+01          0.077340          0.178082
 Vib (V=0)    1  0.118481D+01          0.073647          0.169579
 Electronic      0.100000D+01          0.000000          0.000000
 Translational   0.779433D+07          6.891779         15.868907
 Rotational      0.182955D+04          3.262345          7.511826
 ***** Axes restored to original set *****
 -------------------------------------------------------------------
 Center     Atomic                   Forces (Hartrees/Bohr)
 Number     Number              X              Y              Z
 -------------------------------------------------------------------
      1        8          -0.000007141   -0.000009857    0.000000869
      2        8           0.000007084    0.000009903   -0.000000942
      3        1           0.000002129   -0.000020461    0.000002059
      4        1          -0.000002072    0.000020415   -0.000001985
 -------------------------------------------------------------------
 Cartesian Forces:  Max     0.000020461 RMS     0.000009791

 GradGradGradGradGradGradGradGradGradGradGradGradGradGradGradGradGradGrad
 Berny optimization.
 Internal  Forces:  Max     0.000000077 RMS     0.000000054
 Search for a local minimum.
 Step number   1 out of a maximum of    2
 All quantities printed in internal units (Hartrees-Bohrs-Radians)
 Swaping is turned off.
 Second derivative matrix not updated -- analytic derivatives used.
 The second derivative matrix:
                          R1        R2        R3        A1        A2
           R1           0.37624
           R2          -0.00390   0.53355
           R3          -0.00390  -0.00008   0.53355
           A1           0.07402  -0.00094   0.00033   0.23358
           A2           0.07402   0.00033  -0.00094   0.01929   0.23358
           D1          -0.00121   0.00177   0.00177   0.00873   0.00873
                          D1
           D1           0.00930
 ITU=  0
     Eigenvalues ---    0.00854   0.19373   0.21428   0.43586   0.53364
     Eigenvalues ---    0.53376
 Angle between quadratic step and forces=  90.00 degrees.
 Linear search not attempted -- option 19 set.
 Iteration  1 RMS(Cart)=  0.00000225 RMS(Int)=  0.00000000
 Iteration  2 RMS(Cart)=  0.00000000 RMS(Int)=  0.00000000
 Variable       Old X    -DE/DX   Delta X   Delta X   Delta X     New X
                                 (Linear)    (Quad)   (Total)
    R1        2.68353   0.00000   0.00000   0.00000   0.00000   2.68353
    R2        1.81989   0.00000   0.00000   0.00000   0.00000   1.81989
    R3        1.81989   0.00000   0.00000   0.00000   0.00000   1.81989
    A1        1.77292   0.00000   0.00000   0.00000   0.00000   1.77292
    A2        1.77292   0.00000   0.00000   0.00000   0.00000   1.77292
    D1        1.98322   0.00000   0.00000   0.00001   0.00001   1.98323
         Item               Value     Threshold  Converged?
 Maximum Force            0.000000     0.000002     YES
 RMS     Force            0.000000     0.000001     YES
 Maximum Displacement     0.000002     0.000006     YES
 RMS     Displacement     0.000002     0.000004     YES
 Predicted change in Energy=-1.942092D-13
 Optimization completed.
    -- Stationary point found.
                           ----------------------------
                           !   Optimized Parameters   !
                           ! (Angstroms and Degrees)  !
 --------------------------                            --------------------------
 ! Name  Definition              Value          Derivative Info.                !
 --------------------------------------------------------------------------------
 ! R1    R(1,2)                  1.4201         -DE/DX =    0.0                 !
 ! R2    R(1,3)                  0.963          -DE/DX =    0.0                 !
 ! R3    R(2,4)                  0.963          -DE/DX =    0.0                 !
 ! A1    A(2,1,3)              101.5808         -DE/DX =    0.0                 !
 ! A2    A(1,2,4)              101.5807         -DE/DX =    0.0                 !
 ! D1    D(3,1,2,4)            113.6303         -DE/DX =    0.0                 !
 --------------------------------------------------------------------------------
 GradGradGradGradGradGradGradGradGradGradGradGradGradGradGradGradGradGrad


 Test job not archived.
 1\1\GINC-COMPUTE-3-041\Freq\RM062X\6-311+G(2df,2p)\H2O2\ROOT\11-May-20
 17\0\\#N Geom=AllCheck Guess=TCheck SCRF=Check Test GenChk RM062X/6-31
 1+G(2df,2p) Freq\\InChI=1S/H2O2/c1-2/h1-2H\\0,1\O,-0.5826401902,0.4329
 817605,0.209387189\O,0.5758304433,-0.3827859833,0.3045015993\H,-1.1900
 786779,-0.1479133998,-0.2607566979\H,1.1968884249,0.0976176226,-0.2531
 320904\\Version=EM64L-G09RevB.01\State=1-A\HF=-151.5448131\RMSD=2.065e
 -10\RMSF=9.791e-06\ZeroPoint=0.0273392\Thermal=0.0305401\Dipole=0.0094
 455,-0.0696927,-0.7127813\DipoleDeriv=-0.2696936,-0.0035398,0.0627976,
 -0.0291702,-0.2058626,0.0867103,-0.0336804,0.1431622,-0.334407,-0.2690
 421,-0.0114985,-0.0602169,-0.0194316,-0.2544568,-0.1032136,0.0395429,-
 0.1592207,-0.2864642,0.2701161,0.0053663,-0.0329915,0.0228157,0.216265
 2,-0.0624068,-0.0278729,-0.0621313,0.3235817,0.2686196,0.009672,0.0304
 107,0.0257862,0.2440541,0.0789101,0.0220104,0.0781898,0.2972895\Polar=
 16.6359544,-1.579433,11.8598394,0.2317235,-0.1242257,10.8186126\PG=C01
  [X(H2O2)]\NImag=0\\0.48146323,0.06121437,0.35812679,0.16552921,0.1672
 3905,0.14987477,-0.23751339,0.10586981,-0.03550410,0.49025690,0.109810
 21,-0.12770376,0.02617983,0.03359817,0.28691005,0.00870768,-0.00267920
 ,-0.02346988,-0.16668758,-0.19389333,0.21229777,-0.21000001,-0.1568235
 4,-0.14379821,-0.03375239,-0.01289827,-0.01243636,0.24871204,-0.210958
 85,-0.23660376,-0.17654623,0.04059728,0.01000493,0.01658230,0.16819681
 ,0.22870292,-0.16415166,-0.16109590,-0.12958940,0.00128352,0.00179952,
 -0.00083705,0.15981798,0.15924854,0.12891846,-0.03394984,-0.01026063,0
 .01377309,-0.21899112,-0.13051011,0.17041625,-0.00495965,0.00216476,0.
 00305015,0.25790060,0.03993427,0.00618073,-0.01687264,-0.18006525,-0.1
 6921122,0.17999023,0.00152500,-0.00210409,0.00004784,0.13860598,0.1651
 3457,-0.01008524,-0.00346395,0.00318451,0.20090815,0.16591398,-0.18799
 083,-0.00358342,0.00071539,0.00150800,-0.18723950,-0.16316543,0.183298
 32\\0.00000714,0.00000986,-0.00000087,-0.00000708,-0.00000990,0.000000
 94,-0.00000213,0.00002046,-0.00000206,0.00000207,-0.00002041,0.0000019
 9\\\@


 MEMORIES ARE LIKE AN ENGLISH GRAMMER LESSON -
 PRESENT TENSE, AND PAST PERFECT.
 Job cpu time:  0 days  0 hours  6 minutes 59.1 seconds.
 File lengths (MBytes):  RWF=     75 Int=      0 D2E=      0 Chk=      2 Scr=      1
 Normal termination of Gaussian 09 at Thu May 11 12:26:22 2017.
