 Entering Gaussian System, Link 0=g09
 Initial command:
 /shared/apps/gaussian/G09_LINUX_LINDA/g09/l1.exe /home/harms.n/Code/AutoTST/ipython_notebooks/Gau-6592.inp -scrdir=/home/harms.n/Code/AutoTST/ipython_notebooks/
 Entering Link 1 = /shared/apps/gaussian/G09_LINUX_LINDA/g09/l1.exe PID=      6593.
  
 Copyright (c) 1988,1990,1992,1993,1995,1998,2003,2009,2010,
            Gaussian, Inc.  All Rights Reserved.
  
 This is part of the Gaussian(R) 09 program.  It is based on
 the Gaussian(R) 03 system (copyright 2003, Gaussian, Inc.),
 the Gaussian(R) 98 system (copyright 1998, Gaussian, Inc.),
 the Gaussian(R) 94 system (copyright 1995, Gaussian, Inc.),
 the Gaussian 92(TM) system (copyright 1992, Gaussian, Inc.),
 the Gaussian 90(TM) system (copyright 1990, Gaussian, Inc.),
 the Gaussian 88(TM) system (copyright 1988, Gaussian, Inc.),
 the Gaussian 86(TM) system (copyright 1986, Carnegie Mellon
 University), and the Gaussian 82(TM) system (copyright 1983,
 Carnegie Mellon University). Gaussian is a federally registered
 trademark of Gaussian, Inc.
  
 This software contains proprietary and confidential information,
 including trade secrets, belonging to Gaussian, Inc.
  
 This software is provided under written license and may be
 used, copied, transmitted, or stored only in accord with that
 written license.
  
 The following legend is applicable only to US Government
 contracts under FAR:
  
                    RESTRICTED RIGHTS LEGEND
  
 Use, reproduction and disclosure by the US Government is
 subject to restrictions as set forth in subparagraphs (a)
 and (c) of the Commercial Computer Software - Restricted
 Rights clause in FAR 52.227-19.
  
 Gaussian, Inc.
 340 Quinnipiac St., Bldg. 40, Wallingford CT 06492
  
  
 ---------------------------------------------------------------
 Warning -- This program may not be used in any manner that
 competes with the business of Gaussian, Inc. or will provide
 assistance to any competitor of Gaussian, Inc.  The licensee
 of this program is prohibited from giving any competitor of
 Gaussian, Inc. access to this program.  By using this program,
 the user acknowledges that Gaussian, Inc. is engaged in the
 business of creating and licensing software in the field of
 computational chemistry and represents and warrants to the
 licensee that it is not a competitor of Gaussian, Inc. and that
 it will not use this program in any manner prohibited above.
 ---------------------------------------------------------------
  

 Cite this work as:
 Gaussian 09, Revision B.01,
 M. J. Frisch, G. W. Trucks, H. B. Schlegel, G. E. Scuseria, 
 M. A. Robb, J. R. Cheeseman, G. Scalmani, V. Barone, B. Mennucci, 
 G. A. Petersson, H. Nakatsuji, M. Caricato, X. Li, H. P. Hratchian, 
 A. F. Izmaylov, J. Bloino, G. Zheng, J. L. Sonnenberg, M. Hada, 
 M. Ehara, K. Toyota, R. Fukuda, J. Hasegawa, M. Ishida, T. Nakajima, 
 Y. Honda, O. Kitao, H. Nakai, T. Vreven, J. A. Montgomery, Jr., 
 J. E. Peralta, F. Ogliaro, M. Bearpark, J. J. Heyd, E. Brothers, 
 K. N. Kudin, V. N. Staroverov, T. Keith, R. Kobayashi, J. Normand, 
 K. Raghavachari, A. Rendell, J. C. Burant, S. S. Iyengar, J. Tomasi, 
 M. Cossi, N. Rega, J. M. Millam, M. Klene, J. E. Knox, J. B. Cross, 
 V. Bakken, C. Adamo, J. Jaramillo, R. Gomperts, R. E. Stratmann, 
 O. Yazyev, A. J. Austin, R. Cammi, C. Pomelli, J. W. Ochterski, 
 R. L. Martin, K. Morokuma, V. G. Zakrzewski, G. A. Voth, 
 P. Salvador, J. J. Dannenberg, S. Dapprich, A. D. Daniels, 
 O. Farkas, J. B. Foresman, J. V. Ortiz, J. Cioslowski, 
 and D. J. Fox, Gaussian, Inc., Wallingford CT, 2010.
 
 ******************************************
 Gaussian 09:  EM64L-G09RevB.01 12-Aug-2010
                26-Apr-2018 
 ******************************************
 %nprocshared=20
 Will use up to   20 processors via shared memory.
 %mem=5GB
 -----------------------------------------------
 #p hf/6-31g* Opt=(ModRedun,Loose) Int(Grid=SG1)
 -----------------------------------------------
 1/7=-1,18=120,19=15,38=1/1,3;
 2/9=110,12=2,17=6,18=5,40=1/2;
 3/5=1,6=6,7=1,11=9,16=1,25=1,30=1,71=1,75=1/1,2,3;
 4//1;
 5/5=2,38=5/2;
 6/7=2,8=2,9=2,10=2,28=1/1;
 7//1,2,3,16;
 1/7=-1,18=20,19=15/3(2);
 2/9=110/2;
 99//99;
 2/9=110/2;
 3/5=1,6=6,7=1,11=9,16=1,25=1,30=1,71=1,75=1/1,2,3;
 4/5=5,16=3/1;
 5/5=2,38=5/2;
 7//1,2,3,16;
 1/7=-1,18=20,19=15/3(-5);
 2/9=110/2;
 6/7=2,8=2,9=2,10=2,19=2,28=1/1;
 99/9=1/99;
 Leave Link    1 at Thu Apr 26 15:47:37 2018, MaxMem=  671088640 cpu:       1.1
 (Enter /shared/apps/gaussian/G09_LINUX_LINDA/g09/l101.exe)
 ------------------------------
 Gaussian input prepared by ASE
 ------------------------------
 Symbolic Z-matrix:
 Charge =  0 Multiplicity = 2
 O                    -3.13391   0.4499   -0.89947 
 O                    -4.44432   0.55732  -0.95306 
 C                     0.3373    0.5562   -0.9851 
 C                     0.988    -0.1118   -0.0102 
 C                    -0.8219    1.4737   -0.7225 
 C                     1.67894  -1.42727  -0.28073 
 C                     1.01706   0.47754   1.37609 
 H                    -4.64282   0.69732  -1.91311 
 H                     0.6556    0.4338   -2.0175 
 H                    -1.94885   0.80841  -0.7993 
 H                    -0.83692   2.28251  -1.48281 
 H                    -0.72545   1.93546   0.28235 
 H                     0.94287  -2.17453  -0.64464 
 H                     2.47261  -1.28875  -1.04445 
 H                     2.15405  -1.83381   0.63616 
 H                    -0.01981   0.58894   1.75824 
 H                     1.58126  -0.16493   2.08363 
 H                     1.50333   1.4757    1.34927 
 
 NAtoms=     18 NQM=     18 NQMF=      0 NMic=      0 NMicF=      0 NTot=     18.
 The following ModRedundant input section has been read:
 B       1       5 F                                                           
 B       1      10 F                                                           
 B       5      10 F                                                           
                    Isotopes and Nuclear Properties:
 (Nuclear quadrupole moments (NQMom) in fm**2, nuclear magnetic moments (NMagM)
  in nuclear magnetons)

  Atom         1           2           3           4           5           6           7           8           9          10
 IAtWgt=          16          16          12          12          12          12          12           1           1           1
 AtmWgt=  15.9949146  15.9949146  12.0000000  12.0000000  12.0000000  12.0000000  12.0000000   1.0078250   1.0078250   1.0078250
 NucSpn=           0           0           0           0           0           0           0           1           1           1
 AtZEff=   0.0000000   0.0000000   0.0000000   0.0000000   0.0000000   0.0000000   0.0000000   0.0000000   0.0000000   0.0000000
 NQMom=    0.0000000   0.0000000   0.0000000   0.0000000   0.0000000   0.0000000   0.0000000   0.0000000   0.0000000   0.0000000
 NMagM=    0.0000000   0.0000000   0.0000000   0.0000000   0.0000000   0.0000000   0.0000000   2.7928460   2.7928460   2.7928460

  Atom        11          12          13          14          15          16          17          18
 IAtWgt=           1           1           1           1           1           1           1           1
 AtmWgt=   1.0078250   1.0078250   1.0078250   1.0078250   1.0078250   1.0078250   1.0078250   1.0078250
 NucSpn=           1           1           1           1           1           1           1           1
 AtZEff=   0.0000000   0.0000000   0.0000000   0.0000000   0.0000000   0.0000000   0.0000000   0.0000000
 NQMom=    0.0000000   0.0000000   0.0000000   0.0000000   0.0000000   0.0000000   0.0000000   0.0000000
 NMagM=    2.7928460   2.7928460   2.7928460   2.7928460   2.7928460   2.7928460   2.7928460   2.7928460
 Leave Link  101 at Thu Apr 26 15:47:37 2018, MaxMem=  671088640 cpu:       1.2
 (Enter /shared/apps/gaussian/G09_LINUX_LINDA/g09/l103.exe)

 GradGradGradGradGradGradGradGradGradGradGradGradGradGradGradGradGradGrad
 Berny optimization.
 Initialization pass.
                           ----------------------------
                           !    Initial Parameters    !
                           ! (Angstroms and Degrees)  !
 --------------------------                            --------------------------
 ! Name  Definition              Value          Derivative Info.                !
 --------------------------------------------------------------------------------
 ! R1    R(1,2)                  1.3159         estimate D2E/DX2                !
 ! R2    R(1,5)                  2.5347         Frozen                          !
 ! R3    R(1,10)                 1.2421         Frozen                          !
 ! R4    R(2,8)                  0.9903         estimate D2E/DX2                !
 ! R5    R(3,4)                  1.3491         estimate D2E/DX2                !
 ! R6    R(3,5)                  1.5015         estimate D2E/DX2                !
 ! R7    R(3,9)                  1.0873         estimate D2E/DX2                !
 ! R8    R(4,6)                  1.5103         estimate D2E/DX2                !
 ! R9    R(4,7)                  1.5066         estimate D2E/DX2                !
 ! R10   R(5,10)                 1.3109         Frozen                          !
 ! R11   R(5,11)                 1.1102         estimate D2E/DX2                !
 ! R12   R(5,12)                 1.1101         estimate D2E/DX2                !
 ! R13   R(6,13)                 1.1102         estimate D2E/DX2                !
 ! R14   R(6,14)                 1.1101         estimate D2E/DX2                !
 ! R15   R(6,15)                 1.1098         estimate D2E/DX2                !
 ! R16   R(7,16)                 1.1106         estimate D2E/DX2                !
 ! R17   R(7,17)                 1.1098         estimate D2E/DX2                !
 ! R18   R(7,18)                 1.1106         estimate D2E/DX2                !
 ! A1    A(2,1,10)             158.401          estimate D2E/DX2                !
 ! A2    A(1,2,8)              104.5148         estimate D2E/DX2                !
 ! A3    A(4,3,5)              123.2672         estimate D2E/DX2                !
 ! A4    A(4,3,9)              119.2895         estimate D2E/DX2                !
 ! A5    A(5,3,9)              117.4432         estimate D2E/DX2                !
 ! A6    A(3,4,6)              121.4991         estimate D2E/DX2                !
 ! A7    A(3,4,7)              118.7197         estimate D2E/DX2                !
 ! A8    A(6,4,7)              119.7812         estimate D2E/DX2                !
 ! A9    A(3,5,10)             110.08           estimate D2E/DX2                !
 ! A10   A(3,5,11)             109.6242         estimate D2E/DX2                !
 ! A11   A(3,5,12)             110.2072         estimate D2E/DX2                !
 ! A12   A(10,5,11)            108.5408         estimate D2E/DX2                !
 ! A13   A(10,5,12)            109.8056         estimate D2E/DX2                !
 ! A14   A(11,5,12)            108.5461         estimate D2E/DX2                !
 ! A15   A(4,6,13)             109.9772         estimate D2E/DX2                !
 ! A16   A(4,6,14)             109.9757         estimate D2E/DX2                !
 ! A17   A(4,6,15)             111.526          estimate D2E/DX2                !
 ! A18   A(13,6,14)            109.4187         estimate D2E/DX2                !
 ! A19   A(13,6,15)            107.943          estimate D2E/DX2                !
 ! A20   A(14,6,15)            107.9393         estimate D2E/DX2                !
 ! A21   A(4,7,16)             109.7442         estimate D2E/DX2                !
 ! A22   A(4,7,17)             111.7131         estimate D2E/DX2                !
 ! A23   A(4,7,18)             109.7411         estimate D2E/DX2                !
 ! A24   A(16,7,17)            108.2587         estimate D2E/DX2                !
 ! A25   A(16,7,18)            109.0819         estimate D2E/DX2                !
 ! A26   A(17,7,18)            108.245          estimate D2E/DX2                !
 ! A27   A(1,10,5)             166.2525         estimate D2E/DX2                !
 ! D1    D(10,1,2,8)            89.2886         estimate D2E/DX2                !
 ! D2    D(2,1,10,5)           -10.1395         estimate D2E/DX2                !
 ! D3    D(5,3,4,6)            152.1137         estimate D2E/DX2                !
 ! D4    D(5,3,4,7)            -27.7975         estimate D2E/DX2                !
 ! D5    D(9,3,4,6)            -27.8232         estimate D2E/DX2                !
 ! D6    D(9,3,4,7)            152.2655         estimate D2E/DX2                !
 ! D7    D(4,3,5,10)           -91.2661         estimate D2E/DX2                !
 ! D8    D(4,3,5,11)           149.4079         estimate D2E/DX2                !
 ! D9    D(4,3,5,12)            29.997          estimate D2E/DX2                !
 ! D10   D(9,3,5,10)            88.6719         estimate D2E/DX2                !
 ! D11   D(9,3,5,11)           -30.6541         estimate D2E/DX2                !
 ! D12   D(9,3,5,12)          -150.065          estimate D2E/DX2                !
 ! D13   D(3,4,6,13)           -59.9007         estimate D2E/DX2                !
 ! D14   D(3,4,6,14)            60.6655         estimate D2E/DX2                !
 ! D15   D(3,4,6,15)          -179.6204         estimate D2E/DX2                !
 ! D16   D(7,4,6,13)           120.0096         estimate D2E/DX2                !
 ! D17   D(7,4,6,14)          -119.4242         estimate D2E/DX2                !
 ! D18   D(7,4,6,15)             0.2899         estimate D2E/DX2                !
 ! D19   D(3,4,7,16)            59.926          estimate D2E/DX2                !
 ! D20   D(3,4,7,17)          -179.9926         estimate D2E/DX2                !
 ! D21   D(3,4,7,18)           -59.9306         estimate D2E/DX2                !
 ! D22   D(6,4,7,16)          -119.9868         estimate D2E/DX2                !
 ! D23   D(6,4,7,17)             0.0946         estimate D2E/DX2                !
 ! D24   D(6,4,7,18)           120.1566         estimate D2E/DX2                !
 ! D25   D(3,5,10,1)          -162.2532         estimate D2E/DX2                !
 ! D26   D(11,5,10,1)          -42.269          estimate D2E/DX2                !
 ! D27   D(12,5,10,1)           76.2439         estimate D2E/DX2                !
 --------------------------------------------------------------------------------
 Trust Radius=3.00D-01 FncErr=1.00D-07 GrdErr=1.00D-07
 Number of steps in this run=     82 maximum allowed number of steps=    108.
 GradGradGradGradGradGradGradGradGradGradGradGradGradGradGradGradGradGrad

 Leave Link  103 at Thu Apr 26 15:47:37 2018, MaxMem=  671088640 cpu:       0.2
 (Enter /shared/apps/gaussian/G09_LINUX_LINDA/g09/l202.exe)
                          Input orientation:                          
 ---------------------------------------------------------------------
 Center     Atomic      Atomic             Coordinates (Angstroms)
 Number     Number       Type             X           Y           Z
 ---------------------------------------------------------------------
      1          8           0       -3.133909    0.449896   -0.899466
      2          8           0       -4.444316    0.557317   -0.953056
      3          6           0        0.337300    0.556200   -0.985100
      4          6           0        0.988000   -0.111800   -0.010200
      5          6           0       -0.821900    1.473700   -0.722500
      6          6           0        1.678938   -1.427266   -0.280725
      7          6           0        1.017056    0.477544    1.376091
      8          1           0       -4.642817    0.697316   -1.913111
      9          1           0        0.655600    0.433800   -2.017500
     10          1           0       -1.948854    0.808415   -0.799297
     11          1           0       -0.836920    2.282507   -1.482813
     12          1           0       -0.725446    1.935460    0.282350
     13          1           0        0.942870   -2.174532   -0.644641
     14          1           0        2.472606   -1.288752   -1.044450
     15          1           0        2.154053   -1.833805    0.636159
     16          1           0       -0.019811    0.588940    1.758240
     17          1           0        1.581265   -0.164927    2.083631
     18          1           0        1.503327    1.475695    1.349267
 ---------------------------------------------------------------------
                    Distance matrix (angstroms):
                    1          2          3          4          5
     1  O    0.000000
     2  O    1.315894   0.000000
     3  C    3.473892   4.781723   0.000000
     4  C    4.253990   5.553985   1.349098   0.000000
     5  C    2.534734   3.743636   1.501502   2.509366   0.000000
     6  C    5.202891   6.471850   2.496052   1.510308   3.855510
     7  C    4.733860   5.937833   2.458348   1.506643   2.962797
     8  H    1.834529   0.990307   5.067808   5.998486   4.076730
     9  H    3.951030   5.211280   1.087266   2.106519   2.222931
    10  H    1.242145   2.512771   2.307517   3.177197   1.310926
    11  H    2.995816   4.033637   2.146310   3.351363   1.110167
    12  H    3.066640   4.153973   2.153653   2.685658   1.110068
    13  H    4.855171   6.048131   2.817716   2.158568   4.053402
    14  H    5.871705   7.159618   2.822570   2.158459   4.311445
    15  H    5.961205   7.195939   3.411919   2.177788   4.652079
    16  H    4.096381   5.189255   2.766680   2.152696   2.753220
    17  H    5.613353   6.786068   3.388891   2.176905   4.041617
    18  H    5.254809   6.443490   2.766651   2.152639   3.114306
                    6          7          8          9         10
     6  C    0.000000
     7  C    2.609871   0.000000
     8  H    6.866085   6.549909   0.000000
     9  H    2.743570   3.413066   5.305993   0.000000
    10  H    4.292792   3.693022   2.917252   2.899575   0.000000
    11  H    4.640795   3.855963   4.145218   2.435411   1.968893
    12  H    4.172056   2.521528   4.658201   3.074343   1.984167
    13  H    1.110242   3.335021   6.407529   2.961530   4.157398
    14  H    1.110122   3.331283   7.438298   2.686172   4.899746
    15  H    1.109812   2.680036   7.687833   3.798592   5.086816
    16  H    3.332899   1.110649   5.904468   3.838810   3.210977
    17  H    2.682018   1.109826   7.446919   4.246717   4.660516
    18  H    3.333901   1.110624   7.001719   3.624818   4.120576
                   11         12         13         14         15
    11  H    0.000000
    12  H    1.802407   0.000000
    13  H    4.871897   4.531515   0.000000
    14  H    4.888662   4.731118   1.812332   0.000000
    15  H    5.511804   4.756475   1.795413   1.795273   0.000000
    16  H    3.747034   2.118795   3.786472   4.194394   3.443028
    17  H    4.955510   3.602382   3.448120   3.441273   2.282196
    18  H    3.761434   2.513390   4.196896   3.783061   3.447428
                   16         17         18
    16  H    0.000000
    17  H    1.799344   0.000000
    18  H    1.809294   1.799168   0.000000
 Stoichiometry    C5H11O2(2)
 Framework group  C1[X(C5H11O2)]
 Deg. of freedom    48
 Full point group                 C1      NOp   1
 Largest Abelian subgroup         C1      NOp   1
 Largest concise Abelian subgroup C1      NOp   1
                         Standard orientation:                         
 ---------------------------------------------------------------------
 Center     Atomic      Atomic             Coordinates (Angstroms)
 Number     Number       Type             X           Y           Z
 ---------------------------------------------------------------------
      1          8           0        2.468587   -0.259677   -0.219819
      2          8           0        3.750165   -0.248726   -0.518175
      3          6           0       -0.796037   -0.090267    0.955534
      4          6           0       -1.774448   -0.079978    0.026734
      5          6           0        0.428270    0.774931    0.871769
      6          6           0       -2.629710   -1.297603   -0.232008
      7          6           0       -2.007828    1.180412   -0.765052
      8          1           0        4.190072   -0.672742    0.261185
      9          1           0       -0.883350   -0.753327    1.812782
     10          1           0        1.387710    0.137742    0.245676
     11          1           0        0.779301    1.024327    1.895024
     12          1           0        0.194149    1.720045    0.338668
     13          1           0       -1.991969   -2.147825   -0.553017
     14          1           0       -3.180559   -1.577093    0.690392
     15          1           0       -3.375713   -1.108777   -1.031701
     16          1           0       -1.087248    1.446708   -1.326444
     17          1           0       -2.836672    1.060280   -1.493269
     18          1           0       -2.267233    2.012918   -0.077209
 ---------------------------------------------------------------------
 Rotational constants (GHZ):      4.4779752      0.8317103      0.8031504
 Leave Link  202 at Thu Apr 26 15:47:37 2018, MaxMem=  671088640 cpu:       0.9
 (Enter /shared/apps/gaussian/G09_LINUX_LINDA/g09/l301.exe)
 Standard basis: 6-31G(d) (6D, 7F)
 Ernie: Thresh=  0.10000D-02 Tol=  0.10000D-05 Strict=F.
 There are   127 symmetry adapted basis functions of A   symmetry.
 Integral buffers will be    131072 words long.
 Raffenetti 2 integral format.
 Two-electron integral symmetry is turned on.
   127 basis functions,   240 primitive gaussians,   127 cartesian basis functions
    29 alpha electrons       28 beta electrons
       nuclear repulsion energy       289.2800962238 Hartrees.
 IExCor=    0 DFT=F Ex=HF Corr=None ExCW=0 ScaHFX=  1.000000
 ScaDFX=  1.000000  1.000000  1.000000  1.000000 ScalE2=  1.000000  1.000000
 IRadAn=      1 IRanWt=     -1 IRanGd=            0 ICorTp=0
 NAtoms=   18 NActive=   18 NUniq=   18 SFac= 1.00D+00 NAtFMM=   50 NAOKFM=F Big=F
 Leave Link  301 at Thu Apr 26 15:47:38 2018, MaxMem=  671088640 cpu:       1.0
 (Enter /shared/apps/gaussian/G09_LINUX_LINDA/g09/l302.exe)
 NPDir=0 NMtPBC=     1 NCelOv=     1 NCel=       1 NClECP=     1 NCelD=      1
         NCelK=      1 NCelE2=     1 NClLst=     1 CellRange=     0.0.
 One-electron integrals computed using PRISM.
 NBasis=   127 RedAO= T  NBF=   127
 NBsUse=   127 1.00D-06 NBFU=   127
 Leave Link  302 at Thu Apr 26 15:47:38 2018, MaxMem=  671088640 cpu:       6.7
 (Enter /shared/apps/gaussian/G09_LINUX_LINDA/g09/l303.exe)
 DipDrv:  MaxL=1.
 Leave Link  303 at Thu Apr 26 15:47:39 2018, MaxMem=  671088640 cpu:       1.6
 (Enter /shared/apps/gaussian/G09_LINUX_LINDA/g09/l401.exe)
 Harris functional with IExCor=  205 diagonalized for initial guess.
 ExpMin= 1.61D-01 ExpMax= 5.48D+03 ExpMxC= 8.25D+02 IAcc=1 IRadAn=         1 AccDes= 0.00D+00
 HarFok:  IExCor=  205 AccDes= 0.00D+00 IRadAn=         1 IDoV= 1
 ScaDFX=  1.000000  1.000000  1.000000  1.000000
 FoFCou: FMM=F IPFlag=           0 FMFlag=      100000 FMFlg1=           0
         NFxFlg=           0 DoJE=T BraDBF=F KetDBF=T FulRan=T
         Omega=  0.000000  0.000000  1.000000  0.000000  0.000000 ICntrl=     500 IOpCl=  0
         NMat0=    1 NMatS0=    1 NMatT0=    0 NMatD0=    1 NMtDS0=    0 NMtDT0=    0
         I1Cent=           4 NGrid=           0.
 Petite list used in FoFCou.
 Harris En= -345.753869250052    
 Initial guess orbital symmetries:
 Alpha Orbitals:
       Occupied  (A) (A) (A) (A) (A) (A) (A) (A) (A) (A) (A) (A)
                 (A) (A) (A) (A) (A) (A) (A) (A) (A) (A) (A) (A)
                 (A) (A) (A) (A) (A)
       Virtual   (A) (A) (A) (A) (A) (A) (A) (A) (A) (A) (A) (A)
                 (A) (A) (A) (A) (A) (A) (A) (A) (A) (A) (A) (A)
                 (A) (A) (A) (A) (A) (A) (A) (A) (A) (A) (A) (A)
                 (A) (A) (A) (A) (A) (A) (A) (A) (A) (A) (A) (A)
                 (A) (A) (A) (A) (A) (A) (A) (A) (A) (A) (A) (A)
                 (A) (A) (A) (A) (A) (A) (A) (A) (A) (A) (A) (A)
                 (A) (A) (A) (A) (A) (A) (A) (A) (A) (A) (A) (A)
                 (A) (A) (A) (A) (A) (A) (A) (A) (A) (A) (A) (A)
                 (A) (A)
 Beta  Orbitals:
       Occupied  (A) (A) (A) (A) (A) (A) (A) (A) (A) (A) (A) (A)
                 (A) (A) (A) (A) (A) (A) (A) (A) (A) (A) (A) (A)
                 (A) (A) (A) (A)
       Virtual   (A) (A) (A) (A) (A) (A) (A) (A) (A) (A) (A) (A)
                 (A) (A) (A) (A) (A) (A) (A) (A) (A) (A) (A) (A)
                 (A) (A) (A) (A) (A) (A) (A) (A) (A) (A) (A) (A)
                 (A) (A) (A) (A) (A) (A) (A) (A) (A) (A) (A) (A)
                 (A) (A) (A) (A) (A) (A) (A) (A) (A) (A) (A) (A)
                 (A) (A) (A) (A) (A) (A) (A) (A) (A) (A) (A) (A)
                 (A) (A) (A) (A) (A) (A) (A) (A) (A) (A) (A) (A)
                 (A) (A) (A) (A) (A) (A) (A) (A) (A) (A) (A) (A)
                 (A) (A) (A)
 The electronic state of the initial guess is 2-A.
 Initial guess <Sx>= 0.0000 <Sy>= 0.0000 <Sz>= 0.5000 <S**2>= 0.7500 S= 0.5000
 Leave Link  401 at Thu Apr 26 15:47:41 2018, MaxMem=  671088640 cpu:      25.0
 (Enter /shared/apps/gaussian/G09_LINUX_LINDA/g09/l502.exe)
 UHF open shell SCF:
 Requested convergence on RMS density matrix=1.00D-08 within 128 cycles.
 Requested convergence on MAX density matrix=1.00D-06.
 Requested convergence on             energy=1.00D-06.
 No special actions if energy rises.
 Using DIIS extrapolation, IDIIS=  1040.
 Integral symmetry usage will be decided dynamically.
 Keep R1 and R2 ints in memory in canonical form, NReq=67191093.
 IEnd=       70048 IEndB=       70048 NGot=   671088640 MDV=   604978949
 LenX=   604978949 LenY=   604962379
 Symmetry not used in FoFDir.
 MinBra= 0 MaxBra= 2 Meth= 1.
 IRaf=       0 NMat=   1 IRICut=       1 DoRegI=T DoRafI=F ISym2E= 0 JSym2E=0.

 Cycle   1  Pass 1  IDiag  1:
 E= -344.785747666609    
 DIIS: error= 6.01D-02 at cycle   1 NSaved=   1.
 NSaved= 1 IEnMin= 1 EnMin= -344.785747666609     IErMin= 1 ErrMin= 6.01D-02
 ErrMax= 6.01D-02 EMaxC= 1.00D-01 BMatC= 2.08D+00 BMatP= 2.08D+00
 IDIUse=3 WtCom= 3.99D-01 WtEn= 6.01D-01
 Coeff-Com:  0.100D+01
 Coeff-En:   0.100D+01
 Coeff:      0.100D+01
 Gap=     0.812 Goal=   None    Shift=    0.000
 Gap=     0.480 Goal=   None    Shift=    0.000
 GapD=    0.480 DampG=2.000 DampE=0.500 DampFc=1.0000 IDamp=-1.
 RMSDP=6.36D-03 MaxDP=1.17D-01              OVMax= 1.66D-01

 Cycle   2  Pass 1  IDiag  1:
 E= -345.107060310038     Delta-E=       -0.321312643429 Rises=F Damp=F
 DIIS: error= 2.46D-02 at cycle   2 NSaved=   2.
 NSaved= 2 IEnMin= 2 EnMin= -345.107060310038     IErMin= 2 ErrMin= 2.46D-02
 ErrMax= 2.46D-02 EMaxC= 1.00D-01 BMatC= 2.92D-01 BMatP= 2.08D+00
 IDIUse=3 WtCom= 7.54D-01 WtEn= 2.46D-01
 Coeff-Com:  0.206D+00 0.794D+00
 Coeff-En:   0.000D+00 0.100D+01
 Coeff:      0.155D+00 0.845D+00
 Gap=     0.517 Goal=   None    Shift=    0.000
 Gap=     0.337 Goal=   None    Shift=    0.000
 RMSDP=3.03D-03 MaxDP=4.11D-02 DE=-3.21D-01 OVMax= 1.44D-01

 Cycle   3  Pass 1  IDiag  1:
 E= -345.176302887836     Delta-E=       -0.069242577798 Rises=F Damp=F
 DIIS: error= 7.20D-03 at cycle   3 NSaved=   3.
 NSaved= 3 IEnMin= 3 EnMin= -345.176302887836     IErMin= 3 ErrMin= 7.20D-03
 ErrMax= 7.20D-03 EMaxC= 1.00D-01 BMatC= 3.12D-02 BMatP= 2.92D-01
 IDIUse=3 WtCom= 9.28D-01 WtEn= 7.20D-02
 Coeff-Com: -0.199D-01 0.194D+00 0.826D+00
 Coeff-En:   0.000D+00 0.000D+00 0.100D+01
 Coeff:     -0.185D-01 0.180D+00 0.839D+00
 Gap=     0.456 Goal=   None    Shift=    0.000
 Gap=     0.319 Goal=   None    Shift=    0.000
 RMSDP=7.45D-04 MaxDP=2.35D-02 DE=-6.92D-02 OVMax= 4.86D-02

 Cycle   4  Pass 1  IDiag  1:
 E= -345.186535510738     Delta-E=       -0.010232622903 Rises=F Damp=F
 DIIS: error= 3.73D-03 at cycle   4 NSaved=   4.
 NSaved= 4 IEnMin= 4 EnMin= -345.186535510738     IErMin= 4 ErrMin= 3.73D-03
 ErrMax= 3.73D-03 EMaxC= 1.00D-01 BMatC= 5.07D-03 BMatP= 3.12D-02
 IDIUse=3 WtCom= 9.63D-01 WtEn= 3.73D-02
 Coeff-Com: -0.137D-01 0.145D-01 0.241D+00 0.758D+00
 Coeff-En:   0.000D+00 0.000D+00 0.000D+00 0.100D+01
 Coeff:     -0.132D-01 0.140D-01 0.232D+00 0.767D+00
 Gap=     0.452 Goal=   None    Shift=    0.000
 Gap=     0.335 Goal=   None    Shift=    0.000
 RMSDP=3.09D-04 MaxDP=7.92D-03 DE=-1.02D-02 OVMax= 2.31D-02

 Cycle   5  Pass 1  IDiag  1:
 E= -345.188930421127     Delta-E=       -0.002394910389 Rises=F Damp=F
 DIIS: error= 3.69D-03 at cycle   5 NSaved=   5.
 NSaved= 5 IEnMin= 5 EnMin= -345.188930421127     IErMin= 5 ErrMin= 3.69D-03
 ErrMax= 3.69D-03 EMaxC= 1.00D-01 BMatC= 1.42D-03 BMatP= 5.07D-03
 IDIUse=3 WtCom= 9.63D-01 WtEn= 3.69D-02
 Coeff-Com:  0.655D-02-0.440D-01-0.208D+00-0.190D+00 0.144D+01
 Coeff-En:   0.000D+00 0.000D+00 0.000D+00 0.000D+00 0.100D+01
 Coeff:      0.631D-02-0.424D-01-0.200D+00-0.183D+00 0.142D+01
 Gap=     0.453 Goal=   None    Shift=    0.000
 Gap=     0.356 Goal=   None    Shift=    0.000
 RMSDP=3.75D-04 MaxDP=1.38D-02 DE=-2.39D-03 OVMax= 4.09D-02

 Cycle   6  Pass 1  IDiag  1:
 E= -345.191033009514     Delta-E=       -0.002102588387 Rises=F Damp=F
 DIIS: error= 2.13D-03 at cycle   6 NSaved=   6.
 NSaved= 6 IEnMin= 6 EnMin= -345.191033009514     IErMin= 6 ErrMin= 2.13D-03
 ErrMax= 2.13D-03 EMaxC= 1.00D-01 BMatC= 7.04D-04 BMatP= 1.42D-03
 IDIUse=3 WtCom= 9.79D-01 WtEn= 2.13D-02
 Coeff-Com:  0.358D-02-0.239D-02-0.472D-01-0.298D+00 0.122D+00 0.122D+01
 Coeff-En:   0.000D+00 0.000D+00 0.000D+00 0.000D+00 0.000D+00 0.100D+01
 Coeff:      0.350D-02-0.234D-02-0.462D-01-0.292D+00 0.119D+00 0.122D+01
 Gap=     0.453 Goal=   None    Shift=    0.000
 Gap=     0.363 Goal=   None    Shift=    0.000
 RMSDP=2.59D-04 MaxDP=1.04D-02 DE=-2.10D-03 OVMax= 2.97D-02

 Cycle   7  Pass 1  IDiag  1:
 E= -345.191948069165     Delta-E=       -0.000915059651 Rises=F Damp=F
 DIIS: error= 1.67D-03 at cycle   7 NSaved=   7.
 NSaved= 7 IEnMin= 7 EnMin= -345.191948069165     IErMin= 7 ErrMin= 1.67D-03
 ErrMax= 1.67D-03 EMaxC= 1.00D-01 BMatC= 2.51D-04 BMatP= 7.04D-04
 IDIUse=3 WtCom= 9.83D-01 WtEn= 1.67D-02
 Coeff-Com: -0.510D-02 0.305D-01 0.155D+00 0.191D+00-0.681D+00-0.482D+00
 Coeff-Com:  0.179D+01
 Coeff-En:   0.000D+00 0.000D+00 0.000D+00 0.000D+00 0.000D+00 0.000D+00
 Coeff-En:   0.100D+01
 Coeff:     -0.501D-02 0.300D-01 0.153D+00 0.188D+00-0.670D+00-0.474D+00
 Coeff:      0.178D+01
 Gap=     0.454 Goal=   None    Shift=    0.000
 Gap=     0.364 Goal=   None    Shift=    0.000
 RMSDP=2.29D-04 MaxDP=1.06D-02 DE=-9.15D-04 OVMax= 2.60D-02

 Cycle   8  Pass 1  IDiag  1:
 E= -345.192468926597     Delta-E=       -0.000520857432 Rises=F Damp=F
 DIIS: error= 5.60D-04 at cycle   8 NSaved=   8.
 NSaved= 8 IEnMin= 8 EnMin= -345.192468926597     IErMin= 8 ErrMin= 5.60D-04
 ErrMax= 5.60D-04 EMaxC= 1.00D-01 BMatC= 9.87D-05 BMatP= 2.51D-04
 IDIUse=3 WtCom= 9.94D-01 WtEn= 5.60D-03
 Coeff-Com:  0.780D-03-0.853D-02-0.389D-01 0.644D-02 0.208D+00-0.324D+00
 Coeff-Com: -0.266D+00 0.142D+01
 Coeff-En:   0.000D+00 0.000D+00 0.000D+00 0.000D+00 0.000D+00 0.000D+00
 Coeff-En:   0.000D+00 0.100D+01
 Coeff:      0.776D-03-0.848D-02-0.387D-01 0.640D-02 0.207D+00-0.322D+00
 Coeff:     -0.265D+00 0.142D+01
 Gap=     0.454 Goal=   None    Shift=    0.000
 Gap=     0.367 Goal=   None    Shift=    0.000
 RMSDP=1.52D-04 MaxDP=5.08D-03 DE=-5.21D-04 OVMax= 1.19D-02

 Cycle   9  Pass 1  IDiag  1:
 E= -345.192701433378     Delta-E=       -0.000232506781 Rises=F Damp=F
 DIIS: error= 4.39D-04 at cycle   9 NSaved=   9.
 NSaved= 9 IEnMin= 9 EnMin= -345.192701433378     IErMin= 9 ErrMin= 4.39D-04
 ErrMax= 4.39D-04 EMaxC= 1.00D-01 BMatC= 6.89D-05 BMatP= 9.87D-05
 IDIUse=3 WtCom= 9.96D-01 WtEn= 4.39D-03
 Coeff-Com:  0.444D-03-0.280D-02-0.126D-01-0.163D-01 0.597D-01 0.694D-01
 Coeff-Com: -0.195D+00 0.403D-01 0.106D+01
 Coeff-En:   0.000D+00 0.000D+00 0.000D+00 0.000D+00 0.000D+00 0.000D+00
 Coeff-En:   0.000D+00 0.000D+00 0.100D+01
 Coeff:      0.442D-03-0.278D-02-0.125D-01-0.163D-01 0.595D-01 0.691D-01
 Coeff:     -0.194D+00 0.401D-01 0.106D+01
 Gap=     0.455 Goal=   None    Shift=    0.000
 Gap=     0.367 Goal=   None    Shift=    0.000
 RMSDP=7.73D-05 MaxDP=1.64D-03 DE=-2.33D-04 OVMax= 7.32D-03

 Cycle  10  Pass 1  IDiag  1:
 E= -345.192820083665     Delta-E=       -0.000118650287 Rises=F Damp=F
 DIIS: error= 4.49D-04 at cycle  10 NSaved=  10.
 NSaved=10 IEnMin=10 EnMin= -345.192820083665     IErMin= 9 ErrMin= 4.39D-04
 ErrMax= 4.49D-04 EMaxC= 1.00D-01 BMatC= 6.99D-05 BMatP= 6.89D-05
 IDIUse=3 WtCom= 9.96D-01 WtEn= 4.39D-03
 Coeff-Com:  0.657D-03-0.404D-02-0.186D-01-0.247D-01 0.856D-01 0.118D+00
 Coeff-Com: -0.291D+00 0.322D-02 0.164D+01-0.509D+00
 Coeff-En:   0.000D+00 0.000D+00 0.000D+00 0.000D+00 0.000D+00 0.000D+00
 Coeff-En:   0.000D+00 0.000D+00 0.000D+00 0.100D+01
 Coeff:      0.654D-03-0.402D-02-0.185D-01-0.246D-01 0.852D-01 0.118D+00
 Coeff:     -0.290D+00 0.320D-02 0.163D+01-0.502D+00
 Gap=     0.455 Goal=   None    Shift=    0.000
 Gap=     0.367 Goal=   None    Shift=    0.000
 RMSDP=3.06D-05 MaxDP=6.57D-04 DE=-1.19D-04 OVMax= 2.94D-03

 Cycle  11  Pass 1  IDiag  1:
 E= -345.192772956425     Delta-E=        0.000047127240 Rises=F Damp=F
 DIIS: error= 4.45D-04 at cycle  11 NSaved=  11.
 NSaved=11 IEnMin=10 EnMin= -345.192820083665     IErMin= 9 ErrMin= 4.39D-04
 ErrMax= 4.45D-04 EMaxC= 1.00D-01 BMatC= 6.85D-05 BMatP= 6.89D-05
 IDIUse=3 WtCom= 9.96D-01 WtEn= 4.39D-03
 Large coefficients: NSaved= 11 BigCof=   11.56 CofMax=   10.00 Det=-5.49D-08
 Inversion failed.  Reducing to 10 matrices.
 Large coefficients: NSaved= 10 BigCof=   11.64 CofMax=   10.00 Det=-5.70D-08
 Inversion failed.  Reducing to  9 matrices.
 Large coefficients: NSaved=  9 BigCof=   11.45 CofMax=   10.00 Det=-5.83D-08
 Inversion failed.  Reducing to  8 matrices.
 Large coefficients: NSaved=  8 BigCof=   10.82 CofMax=   10.00 Det=-6.11D-08
 Inversion failed.  Reducing to  7 matrices.
 Rare condition: small coef for last iteration:  0.000D+00
 Coeff-Com:  0.733D-03 0.108D+00-0.122D+00-0.321D+00 0.111D+01-0.881D+01
 Coeff-Com:  0.904D+01
 Coeff-En:   0.000D+00 0.000D+00 0.000D+00 0.000D+00 0.000D+00 0.000D+00
 Coeff-En:   0.100D+01
 Coeff:      0.733D-03 0.108D+00-0.122D+00-0.321D+00 0.111D+01-0.881D+01
 Coeff:      0.904D+01
 Gap=     0.454 Goal=   None    Shift=    0.000
 Gap=     0.366 Goal=   None    Shift=    0.000
 RMSDP=2.15D-04 MaxDP=4.62D-03 DE= 4.71D-05 OVMax= 2.09D-02

 Cycle  12  Pass 1  IDiag  1:
 E= -345.192467924461     Delta-E=        0.000305031964 Rises=F Damp=F
 DIIS: error= 3.53D-04 at cycle  12 NSaved=   8.
 NSaved= 8 IEnMin= 6 EnMin= -345.192820083665     IErMin= 8 ErrMin= 3.53D-04
 ErrMax= 3.53D-04 EMaxC= 1.00D-01 BMatC= 5.62D-05 BMatP= 6.85D-05
 IDIUse=3 WtCom= 9.96D-01 WtEn= 3.53D-03
 Rare condition: small coef for last iteration:  0.000D+00
 Coeff-Com: -0.392D-01-0.575D-01 0.321D+00-0.415D+00-0.261D+01-0.356D+01
 Coeff-Com:  0.392D+01 0.344D+01
 Coeff-En:   0.000D+00 0.000D+00 0.000D+00 0.000D+00 0.000D+00 0.000D+00
 Coeff-En:   0.000D+00 0.100D+01
 Coeff:     -0.392D-01-0.575D-01 0.321D+00-0.415D+00-0.261D+01-0.356D+01
 Coeff:      0.392D+01 0.344D+01
 Gap=     0.452 Goal=   None    Shift=    0.000
 Gap=     0.365 Goal=   None    Shift=    0.000
 RMSDP=4.68D-04 MaxDP=9.77D-03 DE= 3.05D-04 OVMax= 4.58D-02

 Cycle  13  Pass 1  IDiag  1:
 E= -345.191999722323     Delta-E=        0.000468202138 Rises=F Damp=F
 DIIS: error= 2.69D-04 at cycle  13 NSaved=   9.
 NSaved= 9 IEnMin= 6 EnMin= -345.192820083665     IErMin= 9 ErrMin= 2.69D-04
 ErrMax= 2.69D-04 EMaxC= 1.00D-01 BMatC= 2.65D-05 BMatP= 5.62D-05
 IDIUse=3 WtCom= 9.97D-01 WtEn= 2.69D-03
 Large coefficients: NSaved=  9 BigCof=   11.07 CofMax=   10.00 Det=-4.15D-08
 Inversion failed.  Reducing to  8 matrices.
 Large coefficients: NSaved=  8 BigCof=   10.39 CofMax=   10.00 Det=-4.28D-08
 Inversion failed.  Reducing to  7 matrices.
 Rare condition: small coef for last iteration:  0.000D+00
 Coeff-Com: -0.120D-01 0.165D+00 0.698D-02 0.879D+01-0.930D+01-0.637D+00
 Coeff-Com:  0.199D+01
 Coeff-En:   0.000D+00 0.000D+00 0.000D+00 0.000D+00 0.000D+00 0.000D+00
 Coeff-En:   0.100D+01
 Coeff:     -0.120D-01 0.165D+00 0.698D-02 0.879D+01-0.930D+01-0.637D+00
 Coeff:      0.199D+01
 Gap=     0.452 Goal=   None    Shift=    0.000
 Gap=     0.365 Goal=   None    Shift=    0.000
 RMSDP=2.84D-04 MaxDP=5.86D-03 DE= 4.68D-04 OVMax= 2.75D-02

 Cycle  14  Pass 1  IDiag  1:
 E= -345.191869568872     Delta-E=        0.000130153451 Rises=F Damp=F
 DIIS: error= 1.70D-04 at cycle  14 NSaved=   8.
 NSaved= 8 IEnMin= 4 EnMin= -345.192820083665     IErMin= 8 ErrMin= 1.70D-04
 ErrMax= 1.70D-04 EMaxC= 1.00D-01 BMatC= 8.55D-06 BMatP= 2.65D-05
 IDIUse=3 WtCom= 9.98D-01 WtEn= 1.70D-03
 Rare condition: small coef for last iteration:  0.000D+00
 Coeff-Com: -0.104D+00 0.347D+00 0.790D+00 0.444D+01-0.458D+01-0.158D+01
 Coeff-Com:  0.341D+00 0.135D+01
 Coeff-En:   0.000D+00 0.000D+00 0.000D+00 0.000D+00 0.000D+00 0.000D+00
 Coeff-En:   0.000D+00 0.100D+01
 Coeff:     -0.104D+00 0.347D+00 0.790D+00 0.444D+01-0.458D+01-0.158D+01
 Coeff:      0.341D+00 0.135D+01
 Gap=     0.452 Goal=   None    Shift=    0.000
 Gap=     0.365 Goal=   None    Shift=    0.000
 RMSDP=1.56D-04 MaxDP=3.30D-03 DE= 1.30D-04 OVMax= 1.55D-02

 Cycle  15  Pass 1  IDiag  1:
 E= -345.191843202253     Delta-E=        0.000026366619 Rises=F Damp=F
 DIIS: error= 7.98D-05 at cycle  15 NSaved=   9.
 NSaved= 9 IEnMin= 4 EnMin= -345.192820083665     IErMin= 9 ErrMin= 7.98D-05
 ErrMax= 7.98D-05 EMaxC= 1.00D-01 BMatC= 1.74D-06 BMatP= 8.55D-06
 IDIUse=1 WtCom= 1.00D+00 WtEn= 0.00D+00
 Coeff-Com:  0.454D-01-0.104D+00-0.457D+00-0.237D+01 0.251D+01 0.662D+00
 Coeff-Com: -0.410D+00-0.304D+00 0.143D+01
 Coeff:      0.454D-01-0.104D+00-0.457D+00-0.237D+01 0.251D+01 0.662D+00
 Coeff:     -0.410D+00-0.304D+00 0.143D+01
 Gap=     0.453 Goal=   None    Shift=    0.000
 Gap=     0.366 Goal=   None    Shift=    0.000
 RMSDP=1.00D-04 MaxDP=2.09D-03 DE= 2.64D-05 OVMax= 9.91D-03

 Cycle  16  Pass 1  IDiag  1:
 E= -345.191839204641     Delta-E=        0.000003997612 Rises=F Damp=F
 DIIS: error= 4.19D-05 at cycle  16 NSaved=  10.
 NSaved=10 IEnMin= 4 EnMin= -345.192820083665     IErMin=10 ErrMin= 4.19D-05
 ErrMax= 4.19D-05 EMaxC= 1.00D-01 BMatC= 4.73D-07 BMatP= 1.74D-06
 IDIUse=1 WtCom= 1.00D+00 WtEn= 0.00D+00
 Coeff-Com:  0.264D-01-0.104D+00-0.148D+00-0.149D+01 0.157D+01 0.377D+00
 Coeff-Com: -0.195D+00-0.291D+00 0.429D-01 0.121D+01
 Coeff:      0.264D-01-0.104D+00-0.148D+00-0.149D+01 0.157D+01 0.377D+00
 Coeff:     -0.195D+00-0.291D+00 0.429D-01 0.121D+01
 Gap=     0.453 Goal=   None    Shift=    0.000
 Gap=     0.365 Goal=   None    Shift=    0.000
 RMSDP=1.05D-05 MaxDP=2.47D-04 DE= 4.00D-06 OVMax= 6.14D-04

 Cycle  17  Pass 1  IDiag  1:
 E= -345.191839905460     Delta-E=       -0.000000700819 Rises=F Damp=F
 DIIS: error= 2.57D-05 at cycle  17 NSaved=  11.
 NSaved=11 IEnMin= 4 EnMin= -345.192820083665     IErMin=11 ErrMin= 2.57D-05
 ErrMax= 2.57D-05 EMaxC= 1.00D-01 BMatC= 1.59D-07 BMatP= 4.73D-07
 IDIUse=1 WtCom= 1.00D+00 WtEn= 0.00D+00
 Coeff-Com: -0.116D-01 0.321D-01 0.118D+00 0.927D+00-0.953D+00-0.210D+00
 Coeff-Com:  0.139D+00 0.112D+00-0.317D+00-0.292D+00 0.146D+01
 Coeff:     -0.116D-01 0.321D-01 0.118D+00 0.927D+00-0.953D+00-0.210D+00
 Coeff:      0.139D+00 0.112D+00-0.317D+00-0.292D+00 0.146D+01
 Gap=     0.452 Goal=   None    Shift=    0.000
 Gap=     0.365 Goal=   None    Shift=    0.000
 RMSDP=1.74D-05 MaxDP=3.48D-04 DE=-7.01D-07 OVMax= 1.65D-03

 Cycle  18  Pass 1  IDiag  1:
 E= -345.191840164689     Delta-E=       -0.000000259229 Rises=F Damp=F
 DIIS: error= 2.77D-05 at cycle  18 NSaved=  12.
 NSaved=12 IEnMin= 4 EnMin= -345.192820083665     IErMin=11 ErrMin= 2.57D-05
 ErrMax= 2.77D-05 EMaxC= 1.00D-01 BMatC= 9.18D-08 BMatP= 1.59D-07
 IDIUse=1 WtCom= 1.00D+00 WtEn= 0.00D+00
 Coeff-Com: -0.114D-01 0.318D-01 0.983D-01 0.614D+00-0.662D+00-0.162D+00
 Coeff-Com:  0.101D+00 0.828D-01-0.150D+00-0.956D-01 0.271D-01 0.113D+01
 Coeff:     -0.114D-01 0.318D-01 0.983D-01 0.614D+00-0.662D+00-0.162D+00
 Coeff:      0.101D+00 0.828D-01-0.150D+00-0.956D-01 0.271D-01 0.113D+01
 Gap=     0.453 Goal=   None    Shift=    0.000
 Gap=     0.365 Goal=   None    Shift=    0.000
 RMSDP=3.48D-06 MaxDP=1.39D-04 DE=-2.59D-07 OVMax= 2.84D-04

 Cycle  19  Pass 1  IDiag  1:
 E= -345.191840291574     Delta-E=       -0.000000126885 Rises=F Damp=F
 DIIS: error= 2.64D-05 at cycle  19 NSaved=  13.
 NSaved=13 IEnMin= 4 EnMin= -345.192820083665     IErMin=11 ErrMin= 2.57D-05
 ErrMax= 2.64D-05 EMaxC= 1.00D-01 BMatC= 6.48D-08 BMatP= 9.18D-08
 IDIUse=1 WtCom= 1.00D+00 WtEn= 0.00D+00
 Coeff-Com: -0.219D-02 0.107D-01 0.106D-01 0.212D-01-0.330D-01-0.194D-01
 Coeff-Com:  0.274D-02 0.320D-02-0.286D-02 0.987D-01-0.452D+00 0.112D+00
 Coeff-Com:  0.125D+01
 Coeff:     -0.219D-02 0.107D-01 0.106D-01 0.212D-01-0.330D-01-0.194D-01
 Coeff:      0.274D-02 0.320D-02-0.286D-02 0.987D-01-0.452D+00 0.112D+00
 Coeff:      0.125D+01
 Gap=     0.453 Goal=   None    Shift=    0.000
 Gap=     0.365 Goal=   None    Shift=    0.000
 RMSDP=4.91D-06 MaxDP=1.73D-04 DE=-1.27D-07 OVMax= 3.74D-04

 Cycle  20  Pass 1  IDiag  1:
 E= -345.191840422486     Delta-E=       -0.000000130912 Rises=F Damp=F
 DIIS: error= 2.59D-05 at cycle  20 NSaved=  14.
 NSaved=14 IEnMin= 4 EnMin= -345.192820083665     IErMin=11 ErrMin= 2.57D-05
 ErrMax= 2.59D-05 EMaxC= 1.00D-01 BMatC= 4.98D-08 BMatP= 6.48D-08
 IDIUse=1 WtCom= 1.00D+00 WtEn= 0.00D+00
 Coeff-Com:  0.105D-01-0.328D-01-0.104D+00-0.630D+00 0.677D+00 0.165D+00
 Coeff-Com: -0.986D-01-0.624D-01 0.190D+00-0.125D+00 0.381D+00-0.698D+00
 Coeff-Com: -0.146D+01 0.279D+01
 Coeff:      0.105D-01-0.328D-01-0.104D+00-0.630D+00 0.677D+00 0.165D+00
 Coeff:     -0.986D-01-0.624D-01 0.190D+00-0.125D+00 0.381D+00-0.698D+00
 Coeff:     -0.146D+01 0.279D+01
 Gap=     0.453 Goal=   None    Shift=    0.000
 Gap=     0.365 Goal=   None    Shift=    0.000
 RMSDP=8.55D-06 MaxDP=3.41D-04 DE=-1.31D-07 OVMax= 6.78D-04

 Cycle  21  Pass 1  IDiag  1:
 E= -345.191840676730     Delta-E=       -0.000000254244 Rises=F Damp=F
 DIIS: error= 2.10D-05 at cycle  21 NSaved=  15.
 NSaved=15 IEnMin= 4 EnMin= -345.192820083665     IErMin=15 ErrMin= 2.10D-05
 ErrMax= 2.10D-05 EMaxC= 1.00D-01 BMatC= 3.37D-08 BMatP= 4.98D-08
 IDIUse=1 WtCom= 1.00D+00 WtEn= 0.00D+00
 Coeff-Com: -0.584D-03-0.316D-02 0.140D-01 0.163D+00-0.154D+00-0.216D-01
 Coeff-Com:  0.140D-01 0.172D-01 0.700D-02-0.154D+00 0.173D+00 0.641D+00
 Coeff-Com: -0.980D+00-0.164D+01 0.292D+01
 Coeff:     -0.584D-03-0.316D-02 0.140D-01 0.163D+00-0.154D+00-0.216D-01
 Coeff:      0.140D-01 0.172D-01 0.700D-02-0.154D+00 0.173D+00 0.641D+00
 Coeff:     -0.980D+00-0.164D+01 0.292D+01
 Gap=     0.453 Goal=   None    Shift=    0.000
 Gap=     0.365 Goal=   None    Shift=    0.000
 RMSDP=1.27D-05 MaxDP=6.67D-04 DE=-2.54D-07 OVMax= 1.30D-03

 Cycle  22  Pass 1  IDiag  1:
 E= -345.191840964901     Delta-E=       -0.000000288171 Rises=F Damp=F
 DIIS: error= 1.08D-05 at cycle  22 NSaved=  16.
 NSaved=16 IEnMin= 4 EnMin= -345.192820083665     IErMin=16 ErrMin= 1.08D-05
 ErrMax= 1.08D-05 EMaxC= 1.00D-01 BMatC= 1.22D-08 BMatP= 3.37D-08
 IDIUse=1 WtCom= 1.00D+00 WtEn= 0.00D+00
 Coeff-Com: -0.239D-02 0.749D-02 0.283D-01 0.204D+00-0.217D+00-0.415D-01
 Coeff-Com:  0.338D-01 0.298D-02-0.878D-01 0.180D+00-0.225D+00-0.721D-02
 Coeff-Com:  0.751D+00-0.111D+01 0.983D-01 0.139D+01
 Coeff:     -0.239D-02 0.749D-02 0.283D-01 0.204D+00-0.217D+00-0.415D-01
 Coeff:      0.338D-01 0.298D-02-0.878D-01 0.180D+00-0.225D+00-0.721D-02
 Coeff:      0.751D+00-0.111D+01 0.983D-01 0.139D+01
 Gap=     0.453 Goal=   None    Shift=    0.000
 Gap=     0.365 Goal=   None    Shift=    0.000
 RMSDP=6.27D-06 MaxDP=3.61D-04 DE=-2.88D-07 OVMax= 7.08D-04

 Cycle  23  Pass 1  IDiag  1:
 E= -345.191841044582     Delta-E=       -0.000000079681 Rises=F Damp=F
 DIIS: error= 4.74D-06 at cycle  23 NSaved=  17.
 NSaved=17 IEnMin= 4 EnMin= -345.192820083665     IErMin=17 ErrMin= 4.74D-06
 ErrMax= 4.74D-06 EMaxC= 1.00D-01 BMatC= 3.72D-09 BMatP= 1.22D-08
 IDIUse=1 WtCom= 1.00D+00 WtEn= 0.00D+00
 Coeff-Com: -0.425D-03 0.108D-02 0.675D-02-0.325D-01 0.256D-01-0.117D-02
 Coeff-Com: -0.381D-02 0.565D-02-0.222D-01-0.355D-02 0.164D+00-0.359D+00
 Coeff-Com:  0.173D-02 0.110D+01-0.108D+01-0.747D+00 0.194D+01
 Coeff:     -0.425D-03 0.108D-02 0.675D-02-0.325D-01 0.256D-01-0.117D-02
 Coeff:     -0.381D-02 0.565D-02-0.222D-01-0.355D-02 0.164D+00-0.359D+00
 Coeff:      0.173D-02 0.110D+01-0.108D+01-0.747D+00 0.194D+01
 Gap=     0.453 Goal=   None    Shift=    0.000
 Gap=     0.365 Goal=   None    Shift=    0.000
 RMSDP=4.04D-06 MaxDP=2.12D-04 DE=-7.97D-08 OVMax= 4.23D-04

 Cycle  24  Pass 1  IDiag  1:
 E= -345.191841062530     Delta-E=       -0.000000017948 Rises=F Damp=F
 DIIS: error= 1.08D-06 at cycle  24 NSaved=  18.
 NSaved=18 IEnMin= 4 EnMin= -345.192820083665     IErMin=18 ErrMin= 1.08D-06
 ErrMax= 1.08D-06 EMaxC= 1.00D-01 BMatC= 4.98D-10 BMatP= 3.72D-09
 IDIUse=1 WtCom= 1.00D+00 WtEn= 0.00D+00
 Coeff-Com:  0.292D-03-0.699D-03-0.457D-02-0.188D-01 0.218D-01 0.394D-02
 Coeff-Com: -0.457D-02 0.211D-02 0.248D-01-0.436D-01-0.333D-01 0.207D+00
 Coeff-Com: -0.142D+00-0.246D+00 0.332D+00 0.108D+00-0.751D+00 0.154D+01
 Coeff:      0.292D-03-0.699D-03-0.457D-02-0.188D-01 0.218D-01 0.394D-02
 Coeff:     -0.457D-02 0.211D-02 0.248D-01-0.436D-01-0.333D-01 0.207D+00
 Coeff:     -0.142D+00-0.246D+00 0.332D+00 0.108D+00-0.751D+00 0.154D+01
 Gap=     0.453 Goal=   None    Shift=    0.000
 Gap=     0.365 Goal=   None    Shift=    0.000
 RMSDP=8.35D-07 MaxDP=4.55D-05 DE=-1.79D-08 OVMax= 9.01D-05

 Cycle  25  Pass 1  IDiag  1:
 E= -345.191841063624     Delta-E=       -0.000000001094 Rises=F Damp=F
 DIIS: error= 2.78D-07 at cycle  25 NSaved=  19.
 NSaved=19 IEnMin= 4 EnMin= -345.192820083665     IErMin=19 ErrMin= 2.78D-07
 ErrMax= 2.78D-07 EMaxC= 1.00D-01 BMatC= 6.00D-11 BMatP= 4.98D-10
 IDIUse=1 WtCom= 1.00D+00 WtEn= 0.00D+00
 Coeff-Com:  0.188D-03-0.441D-03-0.186D-02-0.608D-02 0.654D-02 0.280D-02
 Coeff-Com: -0.457D-03-0.320D-02-0.375D-03 0.169D-01-0.239D-01-0.275D-01
 Coeff-Com:  0.618D-01-0.174D-01-0.292D-01 0.650D-01 0.122D-01-0.525D+00
 Coeff-Com:  0.147D+01
 Coeff:      0.188D-03-0.441D-03-0.186D-02-0.608D-02 0.654D-02 0.280D-02
 Coeff:     -0.457D-03-0.320D-02-0.375D-03 0.169D-01-0.239D-01-0.275D-01
 Coeff:      0.618D-01-0.174D-01-0.292D-01 0.650D-01 0.122D-01-0.525D+00
 Coeff:      0.147D+01
 Gap=     0.453 Goal=   None    Shift=    0.000
 Gap=     0.365 Goal=   None    Shift=    0.000
 RMSDP=1.88D-07 MaxDP=7.65D-06 DE=-1.09D-09 OVMax= 1.48D-05

 Cycle  26  Pass 1  IDiag  1:
 E= -345.191841063687     Delta-E=       -0.000000000063 Rises=F Damp=F
 DIIS: error= 1.49D-07 at cycle  26 NSaved=  20.
 NSaved=20 IEnMin= 4 EnMin= -345.192820083665     IErMin=20 ErrMin= 1.49D-07
 ErrMax= 1.49D-07 EMaxC= 1.00D-01 BMatC= 1.10D-11 BMatP= 6.00D-11
 IDIUse=1 WtCom= 1.00D+00 WtEn= 0.00D+00
 Coeff-Com: -0.173D-03 0.407D-03 0.155D-02 0.631D-02-0.691D-02-0.194D-02
 Coeff-Com:  0.937D-03 0.889D-03-0.341D-02 0.259D-03 0.108D-01-0.156D-01
 Coeff-Com:  0.461D-02 0.256D-01-0.298D-01-0.312D-01 0.948D-01-0.551D-01
 Coeff-Com: -0.405D+00 0.140D+01
 Coeff:     -0.173D-03 0.407D-03 0.155D-02 0.631D-02-0.691D-02-0.194D-02
 Coeff:      0.937D-03 0.889D-03-0.341D-02 0.259D-03 0.108D-01-0.156D-01
 Coeff:      0.461D-02 0.256D-01-0.298D-01-0.312D-01 0.948D-01-0.551D-01
 Coeff:     -0.405D+00 0.140D+01
 Gap=     0.453 Goal=   None    Shift=    0.000
 Gap=     0.365 Goal=   None    Shift=    0.000
 RMSDP=1.25D-07 MaxDP=2.45D-06 DE=-6.33D-11 OVMax= 1.19D-05

 Cycle  27  Pass 1  IDiag  1:
 E= -345.191841063701     Delta-E=       -0.000000000014 Rises=F Damp=F
 DIIS: error= 1.17D-07 at cycle  27 NSaved=  20.
 NSaved=20 IEnMin= 4 EnMin= -345.192820083665     IErMin=20 ErrMin= 1.17D-07
 ErrMax= 1.17D-07 EMaxC= 1.00D-01 BMatC= 4.66D-12 BMatP= 1.10D-11
 IDIUse=1 WtCom= 1.00D+00 WtEn= 0.00D+00
 Coeff-Com: -0.109D-05 0.271D-04-0.232D-03-0.187D-02 0.194D-02 0.288D-03
 Coeff-Com: -0.219D-03-0.990D-04 0.107D-03 0.188D-02-0.157D-02-0.626D-02
 Coeff-Com:  0.936D-02 0.833D-03-0.158D-01 0.480D-02 0.839D-01-0.238D+00
 Coeff-Com: -0.148D+00 0.131D+01
 Coeff:     -0.109D-05 0.271D-04-0.232D-03-0.187D-02 0.194D-02 0.288D-03
 Coeff:     -0.219D-03-0.990D-04 0.107D-03 0.188D-02-0.157D-02-0.626D-02
 Coeff:      0.936D-02 0.833D-03-0.158D-01 0.480D-02 0.839D-01-0.238D+00
 Coeff:     -0.148D+00 0.131D+01
 Gap=     0.453 Goal=   None    Shift=    0.000
 Gap=     0.365 Goal=   None    Shift=    0.000
 RMSDP=7.26D-08 MaxDP=1.54D-06 DE=-1.38D-11 OVMax= 6.95D-06

 Cycle  28  Pass 1  IDiag  1:
 E= -345.191841063706     Delta-E=       -0.000000000005 Rises=F Damp=F
 DIIS: error= 7.41D-08 at cycle  28 NSaved=  20.
 NSaved=20 IEnMin= 4 EnMin= -345.192820083665     IErMin=20 ErrMin= 7.41D-08
 ErrMax= 7.41D-08 EMaxC= 1.00D-01 BMatC= 1.54D-12 BMatP= 4.66D-12
 IDIUse=1 WtCom= 1.00D+00 WtEn= 0.00D+00
 Coeff-Com:  0.117D-04-0.454D-04-0.735D-04-0.880D-03 0.935D-03 0.176D-03
 Coeff-Com: -0.138D-03-0.666D-04 0.149D-03-0.493D-03-0.680D-03 0.242D-02
 Coeff-Com: -0.331D-02 0.631D-02-0.284D-02-0.388D-01 0.192D+00-0.424D+00
 Coeff-Com: -0.382D+00 0.165D+01
 Coeff:      0.117D-04-0.454D-04-0.735D-04-0.880D-03 0.935D-03 0.176D-03
 Coeff:     -0.138D-03-0.666D-04 0.149D-03-0.493D-03-0.680D-03 0.242D-02
 Coeff:     -0.331D-02 0.631D-02-0.284D-02-0.388D-01 0.192D+00-0.424D+00
 Coeff:     -0.382D+00 0.165D+01
 Gap=     0.453 Goal=   None    Shift=    0.000
 Gap=     0.365 Goal=   None    Shift=    0.000
 RMSDP=2.41D-08 MaxDP=5.11D-07 DE=-4.77D-12 OVMax= 1.59D-06

 Cycle  29  Pass 1  IDiag  1:
 E= -345.191841063708     Delta-E=       -0.000000000002 Rises=F Damp=F
 DIIS: error= 3.74D-08 at cycle  29 NSaved=  20.
 NSaved=20 IEnMin= 4 EnMin= -345.192820083665     IErMin=20 ErrMin= 3.74D-08
 ErrMax= 3.74D-08 EMaxC= 1.00D-01 BMatC= 4.02D-13 BMatP= 1.54D-12
 IDIUse=1 WtCom= 1.00D+00 WtEn= 0.00D+00
 Coeff-Com: -0.165D-04 0.323D-04 0.165D-03 0.820D-03-0.873D-03-0.199D-03
 Coeff-Com:  0.839D-04 0.971D-04-0.154D-03 0.118D-02-0.120D-02-0.509D-03
 Coeff-Com:  0.405D-03 0.410D-02-0.153D-01-0.222D-02 0.225D+00-0.288D+00
 Coeff-Com: -0.680D+00 0.176D+01
 Coeff:     -0.165D-04 0.323D-04 0.165D-03 0.820D-03-0.873D-03-0.199D-03
 Coeff:      0.839D-04 0.971D-04-0.154D-03 0.118D-02-0.120D-02-0.509D-03
 Coeff:      0.405D-03 0.410D-02-0.153D-01-0.222D-02 0.225D+00-0.288D+00
 Coeff:     -0.680D+00 0.176D+01
 Gap=     0.453 Goal=   None    Shift=    0.000
 Gap=     0.365 Goal=   None    Shift=    0.000
 RMSDP=2.18D-08 MaxDP=4.17D-07 DE=-2.05D-12 OVMax= 1.71D-06

 Cycle  30  Pass 1  IDiag  1:
 E= -345.191841063707     Delta-E=        0.000000000000 Rises=F Damp=F
 DIIS: error= 1.55D-08 at cycle  30 NSaved=  20.
 NSaved=20 IEnMin= 4 EnMin= -345.192820083665     IErMin=20 ErrMin= 1.55D-08
 ErrMax= 1.55D-08 EMaxC= 1.00D-01 BMatC= 8.27D-14 BMatP= 4.02D-13
 IDIUse=1 WtCom= 1.00D+00 WtEn= 0.00D+00
 Coeff-Com: -0.815D-05 0.332D-04 0.545D-04 0.478D-03-0.521D-03-0.101D-03
 Coeff-Com:  0.620D-04 0.688D-04-0.148D-03 0.157D-03 0.826D-03-0.299D-02
 Coeff-Com:  0.120D-02 0.126D-01-0.443D-01 0.513D-01 0.968D-01-0.117D+00
 Coeff-Com: -0.433D+00 0.143D+01
 Coeff:     -0.815D-05 0.332D-04 0.545D-04 0.478D-03-0.521D-03-0.101D-03
 Coeff:      0.620D-04 0.688D-04-0.148D-03 0.157D-03 0.826D-03-0.299D-02
 Coeff:      0.120D-02 0.126D-01-0.443D-01 0.513D-01 0.968D-01-0.117D+00
 Coeff:     -0.433D+00 0.143D+01
 Gap=     0.453 Goal=   None    Shift=    0.000
 Gap=     0.365 Goal=   None    Shift=    0.000
 RMSDP=5.91D-09 MaxDP=1.27D-07 DE= 2.27D-13 OVMax= 3.88D-07

 SCF Done:  E(UHF) =  -345.191841064     A.U. after   30 cycles
             Convg  =    0.5912D-08             -V/T =  2.0020
 <Sx>= 0.0000 <Sy>= 0.0000 <Sz>= 0.5000 <S**2>= 0.7684 S= 0.5091
 <L.S>= 0.000000000000E+00
 KE= 3.444954536913D+02 PE=-1.388220208118D+03 EE= 4.092528171394D+02
 Annihilation of the first spin contaminant:
 S**2 before annihilation     0.7684,   after     0.7503
 Leave Link  502 at Thu Apr 26 15:48:48 2018, MaxMem=  671088640 cpu:     670.1
 (Enter /shared/apps/gaussian/G09_LINUX_LINDA/g09/l601.exe)
 Copying SCF densities to generalized density rwf, IOpCl= 1 IROHF=0.

 **********************************************************************

            Population analysis using the SCF density.

 **********************************************************************

 Orbital symmetries:
 Alpha Orbitals:
       Occupied  (A) (A) (A) (A) (A) (A) (A) (A) (A) (A) (A) (A)
                 (A) (A) (A) (A) (A) (A) (A) (A) (A) (A) (A) (A)
                 (A) (A) (A) (A) (A)
       Virtual   (A) (A) (A) (A) (A) (A) (A) (A) (A) (A) (A) (A)
                 (A) (A) (A) (A) (A) (A) (A) (A) (A) (A) (A) (A)
                 (A) (A) (A) (A) (A) (A) (A) (A) (A) (A) (A) (A)
                 (A) (A) (A) (A) (A) (A) (A) (A) (A) (A) (A) (A)
                 (A) (A) (A) (A) (A) (A) (A) (A) (A) (A) (A) (A)
                 (A) (A) (A) (A) (A) (A) (A) (A) (A) (A) (A) (A)
                 (A) (A) (A) (A) (A) (A) (A) (A) (A) (A) (A) (A)
                 (A) (A) (A) (A) (A) (A) (A) (A) (A) (A) (A) (A)
                 (A) (A)
 Beta  Orbitals:
       Occupied  (A) (A) (A) (A) (A) (A) (A) (A) (A) (A) (A) (A)
                 (A) (A) (A) (A) (A) (A) (A) (A) (A) (A) (A) (A)
                 (A) (A) (A) (A)
       Virtual   (A) (A) (A) (A) (A) (A) (A) (A) (A) (A) (A) (A)
                 (A) (A) (A) (A) (A) (A) (A) (A) (A) (A) (A) (A)
                 (A) (A) (A) (A) (A) (A) (A) (A) (A) (A) (A) (A)
                 (A) (A) (A) (A) (A) (A) (A) (A) (A) (A) (A) (A)
                 (A) (A) (A) (A) (A) (A) (A) (A) (A) (A) (A) (A)
                 (A) (A) (A) (A) (A) (A) (A) (A) (A) (A) (A) (A)
                 (A) (A) (A) (A) (A) (A) (A) (A) (A) (A) (A) (A)
                 (A) (A) (A) (A) (A) (A) (A) (A) (A) (A) (A) (A)
                 (A) (A) (A)
 The electronic state is 2-A.
 Alpha  occ. eigenvalues --  -20.71694 -20.70223 -11.21267 -11.20992 -11.20911
 Alpha  occ. eigenvalues --  -11.19983 -11.19878  -1.60794  -1.24452  -1.07415
 Alpha  occ. eigenvalues --   -0.96030  -0.92100  -0.84806  -0.80394  -0.77866
 Alpha  occ. eigenvalues --   -0.73033  -0.67579  -0.60859  -0.57206  -0.56402
 Alpha  occ. eigenvalues --   -0.55013  -0.54247  -0.53167  -0.51122  -0.50107
 Alpha  occ. eigenvalues --   -0.47848  -0.46194  -0.42865  -0.28135
 Alpha virt. eigenvalues --    0.17133   0.18679   0.24707   0.27798   0.29165
 Alpha virt. eigenvalues --    0.29576   0.30009   0.34400   0.34766   0.35270
 Alpha virt. eigenvalues --    0.36316   0.38337   0.42585   0.45299   0.49457
 Alpha virt. eigenvalues --    0.52064   0.56947   0.73210   0.74338   0.75373
 Alpha virt. eigenvalues --    0.79453   0.81576   0.83593   0.87793   0.89876
 Alpha virt. eigenvalues --    0.90916   0.93328   0.94704   0.98345   0.98684
 Alpha virt. eigenvalues --    1.00638   1.03942   1.04332   1.07667   1.08446
 Alpha virt. eigenvalues --    1.09364   1.14122   1.15664   1.17183   1.18318
 Alpha virt. eigenvalues --    1.18850   1.19428   1.20650   1.21726   1.23584
 Alpha virt. eigenvalues --    1.24542   1.25103   1.29334   1.34953   1.39382
 Alpha virt. eigenvalues --    1.44839   1.49576   1.56041   1.60749   1.63407
 Alpha virt. eigenvalues --    1.69169   1.74467   1.77290   1.79962   1.82168
 Alpha virt. eigenvalues --    1.89358   1.97808   2.00805   2.10109   2.13394
 Alpha virt. eigenvalues --    2.14022   2.17916   2.20323   2.23822   2.27752
 Alpha virt. eigenvalues --    2.35258   2.42880   2.44092   2.49795   2.52718
 Alpha virt. eigenvalues --    2.55595   2.59921   2.62235   2.63825   2.65003
 Alpha virt. eigenvalues --    2.69936   2.74251   2.74832   2.76147   2.86498
 Alpha virt. eigenvalues --    2.89829   2.96050   3.02130   3.23871   3.26372
 Alpha virt. eigenvalues --    3.36978   3.81471   4.11720   4.55566   4.69171
 Alpha virt. eigenvalues --    4.72788   4.78846   4.95956
  Beta  occ. eigenvalues --  -20.69374 -20.67808 -11.21250 -11.21180 -11.20890
  Beta  occ. eigenvalues --  -11.19757 -11.19687  -1.54441  -1.15202  -1.07432
  Beta  occ. eigenvalues --   -0.95528  -0.92054  -0.83901  -0.78643  -0.71483
  Beta  occ. eigenvalues --   -0.67497  -0.60890  -0.59037  -0.57334  -0.56261
  Beta  occ. eigenvalues --   -0.53263  -0.51544  -0.50840  -0.49896  -0.47697
  Beta  occ. eigenvalues --   -0.45931  -0.42365  -0.28146
  Beta virt. eigenvalues --    0.08395   0.17959   0.19171   0.24797   0.28102
  Beta virt. eigenvalues --    0.29386   0.29639   0.31932   0.34433   0.34856
  Beta virt. eigenvalues --    0.35431   0.36479   0.38497   0.42452   0.45774
  Beta virt. eigenvalues --    0.50902   0.52279   0.57030   0.73430   0.74418
  Beta virt. eigenvalues --    0.75359   0.79408   0.82145   0.84431   0.88025
  Beta virt. eigenvalues --    0.90613   0.91936   0.93791   0.95109   0.98584
  Beta virt. eigenvalues --    0.98954   1.01397   1.04755   1.06101   1.07957
  Beta virt. eigenvalues --    1.08970   1.12957   1.14837   1.16613   1.17661
  Beta virt. eigenvalues --    1.18551   1.19430   1.19689   1.20756   1.22188
  Beta virt. eigenvalues --    1.24180   1.25435   1.28203   1.32846   1.35542
  Beta virt. eigenvalues --    1.39495   1.45241   1.50111   1.56780   1.63266
  Beta virt. eigenvalues --    1.63504   1.70133   1.75276   1.77762   1.81727
  Beta virt. eigenvalues --    1.85781   1.89872   2.01039   2.06651   2.10342
  Beta virt. eigenvalues --    2.14059   2.17345   2.19726   2.20416   2.24042
  Beta virt. eigenvalues --    2.27748   2.35765   2.43129   2.44839   2.49897
  Beta virt. eigenvalues --    2.52820   2.56185   2.60271   2.63167   2.64368
  Beta virt. eigenvalues --    2.65092   2.70135   2.74872   2.75196   2.77491
  Beta virt. eigenvalues --    2.87856   2.92220   2.96077   3.02487   3.24126
  Beta virt. eigenvalues --    3.27817   3.37014   3.83074   4.14163   4.55529
  Beta virt. eigenvalues --    4.69422   4.72906   4.78989   4.95946
          Condensed to atoms (all electrons):
              1          2          3          4          5          6
     1  O    8.364812   0.044195   0.003233   0.000205  -0.079406   0.000001
     2  O    0.044195   8.049881  -0.000081  -0.000004   0.003718   0.000000
     3  C    0.003233  -0.000081   5.050309   0.678326   0.320367  -0.061140
     4  C    0.000205  -0.000004   0.678326   4.971266  -0.061291   0.336190
     5  C   -0.079406   0.003718   0.320367  -0.061291   5.251441   0.003192
     6  C    0.000001   0.000000  -0.061140   0.336190   0.003192   5.104470
     7  C   -0.000010   0.000000  -0.068510   0.340739  -0.008723  -0.051739
     8  H   -0.030257   0.251397   0.000018   0.000001  -0.000508   0.000000
     9  H    0.000038  -0.000001   0.391373  -0.046365  -0.041893  -0.003028
    10  H   -0.171518   0.019167  -0.031153  -0.004927   0.418601  -0.000029
    11  H    0.002203  -0.000155  -0.041817   0.003778   0.369131  -0.000105
    12  H    0.001606  -0.000082  -0.043655  -0.002119   0.383383   0.000050
    13  H   -0.000005   0.000000  -0.009049  -0.039133   0.000110   0.395874
    14  H    0.000000   0.000000  -0.001705  -0.044225  -0.000080   0.383867
    15  H    0.000000   0.000000   0.003879  -0.039731  -0.000103   0.389505
    16  H   -0.000034   0.000001  -0.002126  -0.044131  -0.001225   0.003540
    17  H    0.000000   0.000000   0.004377  -0.038464   0.000337  -0.004747
    18  H    0.000001   0.000000  -0.010935  -0.039834   0.000156   0.002302
              7          8          9         10         11         12
     1  O   -0.000010  -0.030257   0.000038  -0.171518   0.002203   0.001606
     2  O    0.000000   0.251397  -0.000001   0.019167  -0.000155  -0.000082
     3  C   -0.068510   0.000018   0.391373  -0.031153  -0.041817  -0.043655
     4  C    0.340739   0.000001  -0.046365  -0.004927   0.003778  -0.002119
     5  C   -0.008723  -0.000508  -0.041893   0.418601   0.369131   0.383383
     6  C   -0.051739   0.000000  -0.003028  -0.000029  -0.000105   0.000050
     7  C    5.124406   0.000000   0.004129   0.000240   0.000231  -0.002149
     8  H    0.000000   0.303488   0.000000  -0.001980   0.000076   0.000003
     9  H    0.004129   0.000000   0.533316  -0.000049  -0.001464   0.003553
    10  H    0.000240  -0.001980  -0.000049   0.515180  -0.025635  -0.020224
    11  H    0.000231   0.000076  -0.001464  -0.025635   0.583674  -0.025840
    12  H   -0.002149   0.000003   0.003553  -0.020224  -0.025840   0.552447
    13  H    0.002346   0.000000   0.000271   0.000114  -0.000013  -0.000020
    14  H    0.003646   0.000000   0.002208  -0.000012   0.000012   0.000012
    15  H   -0.004318   0.000000   0.000064  -0.000001   0.000002   0.000005
    16  H    0.388274   0.000000  -0.000167   0.001036  -0.000139  -0.006843
    17  H    0.388965   0.000000  -0.000108  -0.000011  -0.000007   0.000201
    18  H    0.396402   0.000000   0.000011  -0.000078   0.000172   0.001358
             13         14         15         16         17         18
     1  O   -0.000005   0.000000   0.000000  -0.000034   0.000000   0.000001
     2  O    0.000000   0.000000   0.000000   0.000001   0.000000   0.000000
     3  C   -0.009049  -0.001705   0.003879  -0.002126   0.004377  -0.010935
     4  C   -0.039133  -0.044225  -0.039731  -0.044131  -0.038464  -0.039834
     5  C    0.000110  -0.000080  -0.000103  -0.001225   0.000337   0.000156
     6  C    0.395874   0.383867   0.389505   0.003540  -0.004747   0.002302
     7  C    0.002346   0.003646  -0.004318   0.388274   0.388965   0.396402
     8  H    0.000000   0.000000   0.000000   0.000000   0.000000   0.000000
     9  H    0.000271   0.002208   0.000064  -0.000167  -0.000108   0.000011
    10  H    0.000114  -0.000012  -0.000001   0.001036  -0.000011  -0.000078
    11  H   -0.000013   0.000012   0.000002  -0.000139  -0.000007   0.000172
    12  H   -0.000020   0.000012   0.000005  -0.006843   0.000201   0.001358
    13  H    0.532357  -0.025127  -0.029913  -0.000084   0.000265  -0.000092
    14  H   -0.025127   0.540561  -0.023172  -0.000125   0.000030  -0.000103
    15  H   -0.029913  -0.023172   0.545270  -0.000032   0.001808   0.000319
    16  H   -0.000084  -0.000125  -0.000032   0.542359  -0.023494  -0.027500
    17  H    0.000265   0.000030   0.001808  -0.023494   0.543581  -0.028155
    18  H   -0.000092  -0.000103   0.000319  -0.027500  -0.028155   0.531756
 Mulliken atomic charges:
              1
     1  O   -0.135064
     2  O   -0.368037
     3  C   -0.181709
     4  C    0.029720
     5  C   -0.557207
     6  C   -0.498203
     7  C   -0.513929
     8  H    0.477763
     9  H    0.158112
    10  H    0.301280
    11  H    0.135896
    12  H    0.158312
    13  H    0.172099
    14  H    0.164214
    15  H    0.156419
    16  H    0.170690
    17  H    0.155422
    18  H    0.174220
 Sum of Mulliken atomic charges =   0.00000
 Mulliken charges with hydrogens summed into heavy atoms:
              1
     1  O    0.166217
     2  O    0.109726
     3  C   -0.023597
     4  C    0.029720
     5  C   -0.262998
     6  C   -0.005471
     7  C   -0.013597
 Sum of Mulliken charges with hydrogens summed into heavy atoms =   0.00000
          Atomic-Atomic Spin Densities.
              1          2          3          4          5          6
     1  O    1.027671  -0.107522   0.001123  -0.000043  -0.008990   0.000000
     2  O   -0.107522   0.210390  -0.000021   0.000000   0.000235   0.000000
     3  C    0.001123  -0.000021   0.148011   0.001311  -0.018865  -0.001076
     4  C   -0.000043   0.000000   0.001311  -0.130552  -0.001341   0.004482
     5  C   -0.008990   0.000235  -0.018865  -0.001341   0.059391  -0.000001
     6  C    0.000000   0.000000  -0.001076   0.004482  -0.000001   0.015196
     7  C    0.000004   0.000000  -0.001214   0.004546   0.000121  -0.000251
     8  H    0.001227  -0.002842   0.000001   0.000000   0.000052   0.000000
     9  H    0.000008   0.000000  -0.000599   0.000624   0.000353   0.000029
    10  H   -0.039414   0.002501  -0.007817   0.000021   0.018149   0.000018
    11  H    0.000713  -0.000023   0.000667  -0.000144  -0.000302  -0.000001
    12  H    0.000527  -0.000014   0.000740  -0.000009  -0.001001  -0.000010
    13  H    0.000002   0.000000  -0.000006   0.001861   0.000019  -0.001476
    14  H    0.000000   0.000000  -0.000100   0.002083  -0.000006  -0.000882
    15  H    0.000000   0.000000   0.000043   0.000287  -0.000002  -0.000603
    16  H   -0.000012   0.000000  -0.000592   0.002375   0.000255  -0.000024
    17  H    0.000000   0.000000   0.000025   0.000328  -0.000002  -0.000048
    18  H    0.000000   0.000000   0.000399   0.001705  -0.000019   0.000002
              7          8          9         10         11         12
     1  O    0.000004   0.001227   0.000008  -0.039414   0.000713   0.000527
     2  O    0.000000  -0.002842   0.000000   0.002501  -0.000023  -0.000014
     3  C   -0.001214   0.000001  -0.000599  -0.007817   0.000667   0.000740
     4  C    0.004546   0.000000   0.000624   0.000021  -0.000144  -0.000009
     5  C    0.000121   0.000052   0.000353   0.018149  -0.000302  -0.001001
     6  C   -0.000251   0.000000   0.000029   0.000018  -0.000001  -0.000010
     7  C    0.015474   0.000000  -0.000009  -0.000103   0.000037   0.000229
     8  H    0.000000  -0.010389   0.000000   0.000017  -0.000006   0.000000
     9  H   -0.000009   0.000000  -0.010960  -0.000171   0.000112  -0.000022
    10  H   -0.000103   0.000017  -0.000171   0.007018  -0.000572  -0.000649
    11  H    0.000037  -0.000006   0.000112  -0.000572  -0.004693   0.000640
    12  H    0.000229   0.000000  -0.000022  -0.000649   0.000640  -0.003504
    13  H   -0.000018   0.000000   0.000081   0.000009   0.000001   0.000000
    14  H   -0.000032   0.000000  -0.000128  -0.000001  -0.000001   0.000000
    15  H   -0.000016   0.000000  -0.000004   0.000000   0.000000   0.000001
    16  H   -0.001549   0.000000   0.000012   0.000088   0.000007   0.000004
    17  H   -0.000527   0.000000   0.000001   0.000000   0.000000  -0.000006
    18  H   -0.001244   0.000000  -0.000021  -0.000007  -0.000015  -0.000009
             13         14         15         16         17         18
     1  O    0.000002   0.000000   0.000000  -0.000012   0.000000   0.000000
     2  O    0.000000   0.000000   0.000000   0.000000   0.000000   0.000000
     3  C   -0.000006  -0.000100   0.000043  -0.000592   0.000025   0.000399
     4  C    0.001861   0.002083   0.000287   0.002375   0.000328   0.001705
     5  C    0.000019  -0.000006  -0.000002   0.000255  -0.000002  -0.000019
     6  C   -0.001476  -0.000882  -0.000603  -0.000024  -0.000048   0.000002
     7  C   -0.000018  -0.000032  -0.000016  -0.001549  -0.000527  -0.001244
     8  H    0.000000   0.000000   0.000000   0.000000   0.000000   0.000000
     9  H    0.000081  -0.000128  -0.000004   0.000012   0.000001  -0.000021
    10  H    0.000009  -0.000001   0.000000   0.000088   0.000000  -0.000007
    11  H    0.000001  -0.000001   0.000000   0.000007   0.000000  -0.000015
    12  H    0.000000   0.000000   0.000001   0.000004  -0.000006  -0.000009
    13  H   -0.005274   0.001032   0.000269  -0.000020  -0.000008   0.000009
    14  H    0.001032  -0.005830  -0.000013   0.000009   0.000010  -0.000025
    15  H    0.000269  -0.000013  -0.000543   0.000006  -0.000026  -0.000009
    16  H   -0.000020   0.000009   0.000006  -0.005168  -0.000001   0.001028
    17  H   -0.000008   0.000010  -0.000026  -0.000001  -0.000760   0.000301
    18  H    0.000009  -0.000025  -0.000009   0.001028   0.000301  -0.005990
 Mulliken atomic spin densities:
              1
     1  O    0.875294
     2  O    0.102704
     3  C    0.122030
     4  C   -0.112465
     5  C    0.048047
     6  C    0.015356
     7  C    0.015450
     8  H   -0.011940
     9  H   -0.010695
    10  H   -0.020915
    11  H   -0.003580
    12  H   -0.003084
    13  H   -0.003521
    14  H   -0.003883
    15  H   -0.000610
    16  H   -0.003583
    17  H   -0.000713
    18  H   -0.003892
 Sum of Mulliken atomic spin densities =   1.00000
 Electronic spatial extent (au):  <R**2>=           1465.4718
 Charge=              0.0000 electrons
 Dipole moment (field-independent basis, Debye):
    X=              2.4723    Y=             -1.1319    Z=              0.8931  Tot=              2.8620
 Quadrupole moment (field-independent basis, Debye-Ang):
   XX=            -32.9189   YY=            -44.6648   ZZ=            -45.7316
   XY=             -4.1584   XZ=              6.1595   YZ=             -1.1339
 Traceless Quadrupole moment (field-independent basis, Debye-Ang):
   XX=              8.1862   YY=             -3.5597   ZZ=             -4.6265
   XY=             -4.1584   XZ=              6.1595   YZ=             -1.1339
 Octapole moment (field-independent basis, Debye-Ang**2):
  XXX=             93.5781  YYY=             -4.4344  ZZZ=             -2.1692  XYY=             14.9359
  XXY=            -20.2879  XXZ=             19.5878  XZZ=              9.2665  YZZ=             -3.0118
  YYZ=             -1.0610  XYZ=             -1.9140
 Hexadecapole moment (field-independent basis, Debye-Ang**3):
 XXXX=          -1109.6318 YYYY=           -261.6700 ZZZZ=           -185.1401 XXXY=            -95.1390
 XXXZ=             91.4481 YYYX=            -17.4587 YYYZ=              1.3021 ZZZX=             -7.0643
 ZZZY=             -2.4405 XXYY=           -266.6516 XXZZ=           -267.5103 YYZZ=            -75.9604
 XXYZ=            -11.5040 YYXZ=             -5.0301 ZZXY=             -0.6963
 N-N= 2.892800962238D+02 E-N=-2.072714473505D+03  KE= 5.150373541087D+02
                          Isotropic Fermi Contact Couplings
        Atom                 a.u.       MegaHertz       Gauss      10(-4) cm-1
     1  O(17)              0.20832    -126.28320     -45.06098     -42.12354
     2  O(17)              0.07735     -46.88751     -16.73063     -15.63999
     3  C(13)              0.02365      26.58720       9.48697       8.86854
     4  C(13)             -0.02095     -23.54743      -8.40231      -7.85458
     5  C(13)              0.02735      30.74390      10.97019      10.25506
     6  C(13)              0.00579       6.51456       2.32456       2.17302
     7  C(13)              0.00577       6.48370       2.31355       2.16273
     8  H(1)              -0.00616     -27.54427      -9.82848      -9.18778
     9  H(1)              -0.00332     -14.84326      -5.29644      -4.95118
    10  H(1)              -0.01102     -49.27770     -17.58351     -16.43727
    11  H(1)              -0.00106      -4.74990      -1.69488      -1.58439
    12  H(1)              -0.00090      -4.01292      -1.43191      -1.33857
    13  H(1)              -0.00173      -7.74623      -2.76405      -2.58386
    14  H(1)              -0.00164      -7.33095      -2.61586      -2.44534
    15  H(1)              -0.00020      -0.88366      -0.31531      -0.29476
    16  H(1)              -0.00173      -7.75022      -2.76547      -2.58520
    17  H(1)              -0.00023      -1.02741      -0.36660      -0.34271
    18  H(1)              -0.00192      -8.56848      -3.05745      -2.85814
 --------------------------------------------------------
       Center         ----  Spin Dipole Couplings  ----
                      3XX-RR        3YY-RR        3ZZ-RR
 --------------------------------------------------------
     1   Atom       -1.672334      2.280670     -0.608336
     2   Atom       -0.568295      0.650320     -0.082025
     3   Atom       -0.007092      0.020476     -0.013384
     4   Atom       -0.010625      0.027213     -0.016588
     5   Atom        0.032029     -0.017735     -0.014294
     6   Atom        0.002740     -0.000599     -0.002142
     7   Atom        0.001021     -0.000580     -0.000441
     8   Atom        0.011345     -0.013801      0.002456
     9   Atom       -0.002628      0.000261      0.002367
    10   Atom        0.101101     -0.051991     -0.049110
    11   Atom       -0.001286     -0.004652      0.005938
    12   Atom        0.000778      0.004709     -0.005487
    13   Atom        0.002337     -0.001416     -0.000921
    14   Atom        0.001657     -0.001453     -0.000204
    15   Atom        0.001070     -0.000784     -0.000286
    16   Atom        0.002849     -0.002048     -0.000801
    17   Atom        0.001727     -0.000975     -0.000752
    18   Atom        0.001877     -0.001289     -0.000588
 --------------------------------------------------------
                        XY            XZ            YZ
 --------------------------------------------------------
     1   Atom        0.368095      0.165836      2.106437
     2   Atom       -0.080847      0.061686      0.578143
     3   Atom       -0.046184     -0.041945      0.051387
     4   Atom        0.027282      0.060938     -0.026773
     5   Atom       -0.046701     -0.044570      0.025195
     6   Atom        0.002599      0.000402      0.000503
     7   Atom       -0.001365      0.001197     -0.002171
     8   Atom       -0.022274      0.030700     -0.016439
     9   Atom        0.000251     -0.006520     -0.005350
    10   Atom       -0.030946     -0.058065      0.018716
    11   Atom       -0.002898     -0.004267      0.007243
    12   Atom       -0.008322     -0.002301     -0.001826
    13   Atom        0.001063      0.000517      0.000503
    14   Atom        0.000241     -0.000253      0.000204
    15   Atom       -0.000364      0.000381     -0.000474
    16   Atom       -0.002515      0.001836     -0.000548
    17   Atom        0.000020      0.000694      0.000488
    18   Atom       -0.001660      0.000358      0.000056
 --------------------------------------------------------


 ---------------------------------------------------------------------------------
              Anisotropic Spin Dipole Couplings in Principal Axis System
 ---------------------------------------------------------------------------------

       Atom             a.u.   MegaHertz   Gauss  10(-4) cm-1        Axes

              Baa    -1.7368   125.673    44.843    41.920  0.6031 -0.4130  0.6824
     1 O(17)  Bbb    -1.6854   121.954    43.516    40.679  0.7937  0.2262 -0.5646
              Bcc     3.4222  -247.627   -88.360   -82.600  0.0789  0.8822  0.4643
 
              Baa    -0.6105    44.176    15.763    14.736  0.9143  0.2158 -0.3428
     2 O(17)  Bbb    -0.3591    25.983     9.272     8.667  0.4042 -0.4300  0.8073
              Bcc     0.9696   -70.159   -25.035   -23.403 -0.0268  0.8767  0.4804
 
              Baa    -0.0543    -7.284    -2.599    -2.430  0.4586 -0.2933  0.8389
     3 C(13)  Bbb    -0.0410    -5.506    -1.965    -1.837  0.7214  0.6741 -0.1586
              Bcc     0.0953    12.790     4.564     4.266 -0.5190  0.6778  0.5207
 
              Baa    -0.0874   -11.723    -4.183    -3.910 -0.6564  0.3163  0.6849
     4 C(13)  Bbb     0.0398     5.335     1.904     1.779  0.1011  0.9365 -0.3357
              Bcc     0.0476     6.388     2.279     2.131  0.7476  0.1512  0.6467
 
              Baa    -0.0460    -6.176    -2.204    -2.060  0.5805  0.7927  0.1860
     5 C(13)  Bbb    -0.0401    -5.384    -1.921    -1.796  0.2754 -0.4061  0.8713
              Bcc     0.0861    11.560     4.125     3.856  0.7663 -0.4546 -0.4541
 
              Baa    -0.0024    -0.318    -0.114    -0.106  0.2102 -0.5395  0.8153
     6 C(13)  Bbb    -0.0018    -0.248    -0.088    -0.083 -0.4420  0.6914  0.5715
              Bcc     0.0042     0.566     0.202     0.189  0.8720  0.4805  0.0932
 
              Baa    -0.0027    -0.361    -0.129    -0.120  0.0499  0.7317  0.6798
     7 C(13)  Bbb    -0.0005    -0.066    -0.023    -0.022  0.7643  0.4102 -0.4975
              Bcc     0.0032     0.427     0.152     0.142  0.6429 -0.5444  0.5388
 
              Baa    -0.0271   -14.449    -5.156    -4.820  0.6093  0.7654 -0.2073
     8 H(1)   Bbb    -0.0228   -12.171    -4.343    -4.060 -0.3703  0.5059  0.7791
              Bcc     0.0499    26.620     9.499     8.880  0.7011 -0.3979  0.5917
 
              Baa    -0.0082    -4.393    -1.567    -1.465  0.6985  0.3665  0.6146
     9 H(1)   Bbb    -0.0010    -0.558    -0.199    -0.186 -0.5706  0.8035  0.1695
              Bcc     0.0093     4.950     1.766     1.651 -0.4317 -0.4691  0.7704
 
              Baa    -0.0730   -38.957   -13.901   -12.995  0.2044 -0.4657  0.8610
    10 H(1)   Bbb    -0.0549   -29.274   -10.446    -9.765  0.3172  0.8636  0.3918
              Bcc     0.1279    68.232    24.347    22.760  0.9261 -0.1931 -0.3242
 
              Baa    -0.0084    -4.484    -1.600    -1.496  0.1143  0.9001 -0.4205
    11 H(1)   Bbb    -0.0032    -1.728    -0.617    -0.576  0.9226  0.0608  0.3810
              Bcc     0.0116     6.212     2.217     2.072 -0.3685  0.4315  0.8234
 
              Baa    -0.0086    -4.583    -1.635    -1.529  0.5693  0.4507  0.6876
    12 H(1)   Bbb    -0.0027    -1.443    -0.515    -0.481 -0.5393 -0.4265  0.7261
              Bcc     0.0113     6.026     2.150     2.010 -0.6205  0.7842 -0.0002
 
              Baa    -0.0018    -0.985    -0.352    -0.329 -0.1813  0.9029 -0.3897
    13 H(1)   Bbb    -0.0009    -0.469    -0.168    -0.157 -0.2574  0.3389  0.9049
              Bcc     0.0027     1.455     0.519     0.485  0.9491  0.2644  0.1710
 
              Baa    -0.0015    -0.806    -0.287    -0.269 -0.0884  0.9814 -0.1706
    14 H(1)   Bbb    -0.0002    -0.104    -0.037    -0.035  0.1099  0.1798  0.9775
              Bcc     0.0017     0.910     0.325     0.303  0.9900  0.0677 -0.1238
 
              Baa    -0.0011    -0.575    -0.205    -0.192  0.0601  0.8688  0.4915
    15 H(1)   Bbb    -0.0002    -0.109    -0.039    -0.036 -0.3698 -0.4380  0.8194
              Bcc     0.0013     0.684     0.244     0.228  0.9272 -0.2310  0.2950
 
              Baa    -0.0031    -1.672    -0.597    -0.558  0.4145  0.9028 -0.1142
    16 H(1)   Bbb    -0.0015    -0.774    -0.276    -0.258 -0.2603  0.2379  0.9358
              Bcc     0.0046     2.446     0.873     0.816  0.8720 -0.3582  0.3336
 
              Baa    -0.0014    -0.760    -0.271    -0.254  0.1437  0.7247 -0.6739
    17 H(1)   Bbb    -0.0005    -0.262    -0.093    -0.087 -0.2226  0.6872  0.6915
              Bcc     0.0019     1.022     0.365     0.341  0.9643  0.0507  0.2601
 
              Baa    -0.0020    -1.081    -0.386    -0.361  0.3983  0.9073 -0.1347
    18 H(1)   Bbb    -0.0006    -0.315    -0.113    -0.105 -0.0344  0.1615  0.9863
              Bcc     0.0026     1.396     0.498     0.466  0.9166 -0.3882  0.0955
 

 ---------------------------------------------------------------------------------

 No NMR shielding tensors so no spin-rotation constants.
 Leave Link  601 at Thu Apr 26 15:48:50 2018, MaxMem=  671088640 cpu:      16.6
 (Enter /shared/apps/gaussian/G09_LINUX_LINDA/g09/l701.exe)
 Compute integral first derivatives.
 ... and contract with generalized density number  0.
 Leave Link  701 at Thu Apr 26 15:48:52 2018, MaxMem=  671088640 cpu:      11.0
 (Enter /shared/apps/gaussian/G09_LINUX_LINDA/g09/l702.exe)
 L702 exits ... SP integral derivatives will be done elsewhere.
 Leave Link  702 at Thu Apr 26 15:48:52 2018, MaxMem=  671088640 cpu:       0.2
 (Enter /shared/apps/gaussian/G09_LINUX_LINDA/g09/l703.exe)
 Compute integral first derivatives, UseDBF=F ICtDFT=           0.
 Integral derivatives from FoFDir, PRISM(SPDF).
 Calling FoFJK, ICntrl=      2127 FMM=F ISym2X=0 I1Cent= 0 IOpClX= 1 NMat=1 NMatS=1 NMatT=0.
 FoFCou: FMM=F IPFlag=           0 FMFlag=      100000 FMFlg1=         800
         NFxFlg=           0 DoJE=F BraDBF=F KetDBF=F FulRan=T
         Omega=  0.000000  0.000000  1.000000  0.000000  0.000000 ICntrl=    2127 IOpCl=  1
         NMat0=    1 NMatS0=    1 NMatT0=    0 NMatD0=    1 NMtDS0=    0 NMtDT0=    0
         I1Cent=           0 NGrid=           0.
 Symmetry not used in FoFCou.
 Leave Link  703 at Thu Apr 26 15:48:53 2018, MaxMem=  671088640 cpu:      15.8
 (Enter /shared/apps/gaussian/G09_LINUX_LINDA/g09/l716.exe)
 Dipole        = 9.72675484D-01-4.45342419D-01 3.51389234D-01
 ***** Axes restored to original set *****
 -------------------------------------------------------------------
[...]
    14  H    0.003652   0.000000   0.003066  -0.000003  -0.000008   0.000005
    15  H   -0.000917   0.000000   0.000112  -0.000003   0.000005   0.000007
    16  H    0.395476   0.000001   0.000038  -0.000161   0.000071   0.000526
    17  H    0.391511   0.000000  -0.000107   0.000091  -0.000008  -0.000115
    18  H    0.388427   0.000000  -0.000112  -0.000029   0.000008   0.000082
             13         14         15         16         17         18
     1  O    0.000000   0.000000   0.000000   0.000136  -0.000005   0.000000
     2  O    0.000000   0.000000   0.000000  -0.000009   0.000000   0.000000
     3  C    0.000209  -0.001035  -0.000374  -0.003176   0.000566   0.000163
     4  C   -0.041616  -0.040809  -0.042359  -0.034943  -0.041129  -0.041720
     5  C   -0.000077   0.000148  -0.000097  -0.000634   0.000245   0.000177
     6  C    0.388450   0.394829   0.389381   0.003578  -0.002117  -0.001690
     7  C   -0.001384   0.003652  -0.000917   0.395476   0.391511   0.388427
     8  H    0.000000   0.000000   0.000000   0.000001   0.000000   0.000000
     9  H    0.000148   0.003066   0.000112   0.000038  -0.000107  -0.000112
    10  H    0.000015  -0.000003  -0.000003  -0.000161   0.000091  -0.000029
    11  H   -0.000001  -0.000008   0.000005   0.000071  -0.000008   0.000008
    12  H   -0.000005   0.000005   0.000007   0.000526  -0.000115   0.000082
    13  H    0.539546  -0.024628  -0.034512  -0.000063   0.002654  -0.000362
    14  H   -0.024628   0.516749  -0.024920  -0.000091  -0.000030  -0.000060
    15  H   -0.034512  -0.024920   0.542711  -0.000040  -0.000393   0.002561
    16  H   -0.000063  -0.000091  -0.000040   0.505295  -0.024959  -0.024986
    17  H    0.002654  -0.000030  -0.000393  -0.024959   0.530660  -0.033084
    18  H   -0.000362  -0.000060   0.002561  -0.024986  -0.033084   0.540608
 Mulliken atomic charges:
              1
     1  O   -0.315149
     2  O   -0.444860
     3  C   -0.190079
     4  C    0.074797
     5  C   -0.510086
     6  C   -0.510555
     7  C   -0.516660
     8  H    0.455857
     9  H    0.180895
    10  H    0.330321
    11  H    0.190818
    12  H    0.210920
    13  H    0.171625
    14  H    0.173136
    15  H    0.168839
    16  H    0.183942
    17  H    0.176219
    18  H    0.170018
 Sum of Mulliken atomic charges =   0.00000
 Mulliken charges with hydrogens summed into heavy atoms:
              1
     1  O    0.015172
     2  O    0.010997
     3  C   -0.009185
     4  C    0.074797
     5  C   -0.108348
     6  C    0.003046
     7  C    0.013520
 Sum of Mulliken charges with hydrogens summed into heavy atoms =   0.00000
          Atomic-Atomic Spin Densities.
              1          2          3          4          5          6
     1  O    0.782517  -0.049871   0.003996   0.000276  -0.070346   0.000001
     2  O   -0.049871   0.016083  -0.000224  -0.000004   0.007158   0.000000
     3  C    0.003996  -0.000224  -0.726950   0.034834  -0.037026  -0.000633
     4  C    0.000276  -0.000004   0.034834   0.833720  -0.013287  -0.023834
     5  C   -0.070346   0.007158  -0.037026  -0.013287   0.788371   0.000012
     6  C    0.000001   0.000000  -0.000633  -0.023834   0.000012  -0.092493
     7  C   -0.000017   0.000001  -0.000195  -0.027855   0.000385   0.002250
     8  H    0.000062  -0.000315  -0.000001   0.000000  -0.000022   0.000000
     9  H   -0.000035   0.000001   0.007161  -0.002112  -0.001478   0.000184
    10  H   -0.077794   0.018818   0.015862   0.000170   0.066768   0.000018
    11  H    0.003324  -0.000906   0.004641  -0.000115  -0.021979   0.000009
    12  H    0.003344  -0.001281   0.004149  -0.000533  -0.020921   0.000004
    13  H    0.000000   0.000000   0.000196  -0.013346   0.000027   0.006788
    14  H    0.000000   0.000000   0.000970  -0.002229  -0.000003   0.003545
    15  H    0.000000   0.000000  -0.000178  -0.012686   0.000021   0.007839
    16  H    0.000001   0.000001   0.000872  -0.002131  -0.000486  -0.000075
    17  H   -0.000008   0.000000   0.000030  -0.011734   0.000153   0.000359
    18  H    0.000001   0.000000  -0.000034  -0.012407   0.000102   0.000599
              7          8          9         10         11         12
     1  O   -0.000017   0.000062  -0.000035  -0.077794   0.003324   0.003344
     2  O    0.000001  -0.000315   0.000001   0.018818  -0.000906  -0.001281
     3  C   -0.000195  -0.000001   0.007161   0.015862   0.004641   0.004149
     4  C   -0.027855   0.000000  -0.002112   0.000170  -0.000115  -0.000533
     5  C    0.000385  -0.000022  -0.001478   0.066768  -0.021979  -0.020921
     6  C    0.002250   0.000000   0.000184   0.000018   0.000009   0.000004
     7  C   -0.086215   0.000000   0.000040  -0.000028  -0.000022   0.000312
     8  H    0.000000  -0.001258   0.000000   0.000212  -0.000033  -0.000005
     9  H    0.000040   0.000000   0.042201  -0.000285  -0.000193  -0.000042
    10  H   -0.000028   0.000212  -0.000285  -0.256106   0.009566   0.010684
    11  H   -0.000022  -0.000033  -0.000193   0.009566  -0.039647   0.002119
    12  H    0.000312  -0.000005  -0.000042   0.010684   0.002119  -0.041983
    13  H    0.000621   0.000000   0.000052  -0.000005  -0.000001  -0.000001
    14  H   -0.000063   0.000000  -0.000075   0.000001   0.000001   0.000000
    15  H    0.000451   0.000000  -0.000039   0.000001   0.000001   0.000001
    16  H    0.003452   0.000000   0.000004  -0.000032   0.000014   0.000159
    17  H    0.007827   0.000000   0.000004  -0.000024  -0.000002  -0.000026
    18  H    0.007082   0.000000  -0.000011   0.000007   0.000004   0.000023
             13         14         15         16         17         18
     1  O    0.000000   0.000000   0.000000   0.000001  -0.000008   0.000001
     2  O    0.000000   0.000000   0.000000   0.000001   0.000000   0.000000
     3  C    0.000196   0.000970  -0.000178   0.000872   0.000030  -0.000034
     4  C   -0.013346  -0.002229  -0.012686  -0.002131  -0.011734  -0.012407
     5  C    0.000027  -0.000003   0.000021  -0.000486   0.000153   0.000102
     6  C    0.006788   0.003545   0.007839  -0.000075   0.000359   0.000599
     7  C    0.000621  -0.000063   0.000451   0.003452   0.007827   0.007082
     8  H    0.000000   0.000000   0.000000   0.000000   0.000000   0.000000
     9  H    0.000052  -0.000075  -0.000039   0.000004   0.000004  -0.000011
    10  H   -0.000005   0.000001   0.000001  -0.000032  -0.000024   0.000007
    11  H   -0.000001   0.000001   0.000001   0.000014  -0.000002   0.000004
    12  H   -0.000001   0.000000   0.000001   0.000159  -0.000026   0.000023
    13  H    0.040436  -0.000792  -0.008187  -0.000002   0.001662  -0.000622
    14  H   -0.000792   0.003330  -0.000620   0.000000  -0.000003  -0.000001
    15  H   -0.008187  -0.000620   0.036709   0.000001  -0.000648   0.001590
    16  H   -0.000002   0.000000   0.000001   0.003497  -0.000615  -0.000741
    17  H    0.001662  -0.000003  -0.000648  -0.000615   0.032571  -0.007012
    18  H   -0.000622  -0.000001   0.001590  -0.000741  -0.007012   0.036047
 Mulliken atomic spin densities:
              1
     1  O    0.595450
     2  O   -0.010540
     3  C   -0.692531
     4  C    0.746729
     5  C    0.697448
     6  C   -0.095428
     7  C   -0.091975
     8  H   -0.001360
     9  H    0.045377
    10  H   -0.212168
    11  H   -0.043221
    12  H   -0.043999
    13  H    0.026825
    14  H    0.004059
    15  H    0.024255
    16  H    0.003917
    17  H    0.022534
    18  H    0.024627
 Sum of Mulliken atomic spin densities =   1.00000
 Electronic spatial extent (au):  <R**2>=           1352.4227
 Charge=              0.0000 electrons
 Dipole moment (field-independent basis, Debye):
    X=              0.9249    Y=             -1.5689    Z=             -1.2024  Tot=              2.1824
 Quadrupole moment (field-independent basis, Debye-Ang):
   XX=            -39.6390   YY=            -43.1089   ZZ=            -46.2710
   XY=              6.5842   XZ=              3.8432   YZ=             -0.0106
 Traceless Quadrupole moment (field-independent basis, Debye-Ang):
   XX=              3.3673   YY=             -0.1026   ZZ=             -3.2647
   XY=              6.5842   XZ=              3.8432   YZ=             -0.0106
 Octapole moment (field-independent basis, Debye-Ang**2):
  XXX=            -52.1318  YYY=             -2.7214  ZZZ=              3.1435  XYY=             -7.3837
  XXY=            -20.6001  XXZ=             -5.4032  XZZ=             -6.6988  YZZ=              2.0527
  YYZ=              0.6208  XYZ=             -1.7223
 Hexadecapole moment (field-independent basis, Debye-Ang**3):
 XXXX=          -1126.7449 YYYY=           -239.5897 ZZZZ=           -142.8917 XXXY=             84.7646
 XXXZ=             10.2840 YYYX=             -3.3753 YYYZ=              0.7596 ZZZX=             -1.2254
 ZZZY=              0.0005 XXYY=           -258.8564 XXZZ=           -247.8864 YYZZ=            -63.6031
 XXYZ=              0.8071 YYXZ=              1.4526 ZZXY=              2.6190
 N-N= 2.950913800309D+02 E-N=-2.091017455333D+03  KE= 5.157681011605D+02
                          Isotropic Fermi Contact Couplings
        Atom                 a.u.       MegaHertz       Gauss      10(-4) cm-1
     1  O(17)              0.12165     -73.74519     -26.31412     -24.59875
     2  O(17)              0.02184     -13.23985      -4.72431      -4.41634
     3  C(13)             -0.12467    -140.15281     -50.01001     -46.74995
     4  C(13)              0.13254     149.00578      53.16897      49.70298
     5  C(13)              0.16924     190.25568      67.88796      63.46246
     6  C(13)             -0.03170     -35.63308     -12.71477     -11.88592
     7  C(13)             -0.03029     -34.05577     -12.15195     -11.35978
     8  H(1)              -0.00075      -3.35525      -1.19724      -1.11919
     9  H(1)               0.01398      62.49655      22.30032      20.84660
    10  H(1)              -0.08545    -381.96668    -136.29521    -127.41037
    11  H(1)              -0.01428     -63.81304     -22.77008     -21.28574
    12  H(1)              -0.01485     -66.38258     -23.68695     -22.14285
    13  H(1)               0.01185      52.98381      18.90594      17.67350
    14  H(1)               0.00138       6.16899       2.20125       2.05775
    15  H(1)               0.01083      48.41232      17.27472      16.14861
    16  H(1)               0.00133       5.95793       2.12594       1.98735
    17  H(1)               0.01013      45.27460      16.15510      15.10198
    18  H(1)               0.01102      49.26668      17.57958      16.43360
 --------------------------------------------------------
       Center         ----  Spin Dipole Couplings  ----
                      3XX-RR        3YY-RR        3ZZ-RR
 --------------------------------------------------------
     1   Atom        0.212084     -0.950649      0.738566
     2   Atom        0.095592     -0.022275     -0.073317
     3   Atom        0.169524      0.214768     -0.384292
     4   Atom       -0.182838     -0.292942      0.475780
     5   Atom       -0.012150     -0.274599      0.286748
     6   Atom       -0.006506      0.005106      0.001400
     7   Atom        0.006247     -0.008508      0.002261
     8   Atom        0.014036     -0.008826     -0.005209
     9   Atom        0.028872     -0.024435     -0.004436
    10   Atom        0.065636     -0.103807      0.038171
    11   Atom       -0.014533      0.018563     -0.004029
    12   Atom       -0.025690      0.021480      0.004210
    13   Atom        0.005394     -0.004173     -0.001221
    14   Atom        0.000280      0.000611     -0.000892
    15   Atom        0.007733     -0.003429     -0.004304
    16   Atom       -0.001254      0.004372     -0.003118
    17   Atom       -0.001628      0.007721     -0.006094
    18   Atom       -0.003114      0.006580     -0.003466
 --------------------------------------------------------
                        XY            XZ            YZ
 --------------------------------------------------------
     1   Atom       -0.658300     -1.609707      0.702422
     2   Atom       -0.057587     -0.275990      0.151569
     3   Atom        0.042494      0.240915     -0.082704
     4   Atom       -0.048925     -0.297242      0.098091
     5   Atom       -0.080054     -0.414266      0.123905
     6   Atom       -0.001367     -0.004175     -0.000945
     7   Atom       -0.001561      0.000617      0.000376
     8   Atom        0.006351      0.010031      0.007113
     9   Atom        0.015206      0.008926      0.011119
    10   Atom       -0.068485     -0.177391      0.062403
    11   Atom        0.028186     -0.003636      0.030977
    12   Atom       -0.009593     -0.011171     -0.029149
    13   Atom       -0.001580      0.005527     -0.002446
    14   Atom       -0.005911      0.000875     -0.002459
    15   Atom       -0.003054      0.002851      0.000518
    16   Atom       -0.000384     -0.000827     -0.002454
    17   Atom        0.001040     -0.000257      0.000983
    18   Atom        0.002145      0.000539     -0.003427
 --------------------------------------------------------


 ---------------------------------------------------------------------------------
              Anisotropic Spin Dipole Couplings in Principal Axis System
 ---------------------------------------------------------------------------------

       Atom             a.u.   MegaHertz   Gauss  10(-4) cm-1        Axes

              Baa    -1.2495    90.414    32.262    30.159  0.4905  0.8667  0.0909
     1 O(17)  Bbb    -1.1342    82.072    29.285    27.376  0.6073 -0.4148  0.6776
              Bcc     2.3837  -172.486   -61.547   -57.535 -0.6250  0.2771  0.7298
 
              Baa    -0.3076    22.259     7.943     7.425  0.5023 -0.3244  0.8015
     2 O(17)  Bbb    -0.0437     3.159     1.127     1.054  0.4759  0.8777  0.0570
              Bcc     0.3513   -25.418    -9.070    -8.479  0.7220 -0.3528 -0.5952
 
              Baa    -0.4866   -65.295   -23.299   -21.780 -0.3492  0.1306  0.9279
     3 C(13)  Bbb     0.2237    30.022    10.713    10.014 -0.2239  0.9499 -0.2179
              Bcc     0.2629    35.273    12.586    11.766  0.9099  0.2839  0.3025
 
              Baa    -0.3130   -42.004   -14.988   -14.011  0.5470  0.8308  0.1028
     4 C(13)  Bbb    -0.2904   -38.963   -13.903   -12.997  0.7569 -0.5433  0.3632
              Bcc     0.6034    80.967    28.891    27.008 -0.3576  0.1209  0.9260
 
              Baa    -0.3072   -41.218   -14.708   -13.749  0.6082 -0.5774  0.5447
     5 C(13)  Bbb    -0.2953   -39.628   -14.140   -13.219  0.5566  0.7994  0.2260
              Bcc     0.6025    80.846    28.848    26.967 -0.5659  0.1657  0.8076
 
              Baa    -0.0085    -1.140    -0.407    -0.380  0.9107  0.1190  0.3955
     6 C(13)  Bbb     0.0031     0.422     0.151     0.141 -0.4102  0.1478  0.9000
              Bcc     0.0054     0.718     0.256     0.239 -0.0486  0.9818 -0.1834
 
              Baa    -0.0087    -1.166    -0.416    -0.389  0.1055  0.9936 -0.0401
     7 C(13)  Bbb     0.0022     0.295     0.105     0.099 -0.1302  0.0538  0.9900
              Bcc     0.0065     0.871     0.311     0.290  0.9859 -0.0993  0.1350
 
              Baa    -0.0144    -7.697    -2.747    -2.567  0.0600  0.7576 -0.6500
     8 H(1)   Bbb    -0.0064    -3.438    -1.227    -1.147 -0.4955  0.5879  0.6394
              Bcc     0.0209    11.135     3.973     3.714  0.8665  0.2837  0.4107
 
              Baa    -0.0313   -16.725    -5.968    -5.579 -0.1867  0.9283 -0.3216
     9 H(1)   Bbb    -0.0049    -2.608    -0.931    -0.870 -0.3489  0.2434  0.9050
              Bcc     0.0362    19.332     6.898     6.449  0.9184  0.2812  0.2784
 
              Baa    -0.1280   -68.321   -24.379   -22.789  0.3952  0.9153  0.0781
    10 H(1)   Bbb    -0.1258   -67.109   -23.946   -22.385  0.5819 -0.3152  0.7496
              Bcc     0.2538   135.430    48.325    45.175  0.7108 -0.2508 -0.6572
 
              Baa    -0.0422   -22.493    -8.026    -7.503  0.6430 -0.5632  0.5189
    11 H(1)   Bbb    -0.0058    -3.074    -1.097    -1.025 -0.6853 -0.1206  0.7182
              Bcc     0.0479    25.567     9.123     8.528  0.3419  0.8174  0.4635
 
              Baa    -0.0369   -19.674    -7.020    -6.563  0.7959  0.3701  0.4790
    12 H(1)   Bbb    -0.0064    -3.408    -1.216    -1.137 -0.6052  0.4665  0.6451
              Bcc     0.0433    23.082     8.236     7.699 -0.0153  0.8034 -0.5953
 
              Baa    -0.0059    -3.122    -1.114    -1.041 -0.2123  0.7363  0.6425
    13 H(1)   Bbb    -0.0032    -1.700    -0.606    -0.567  0.4931  0.6483 -0.5801
              Bcc     0.0090     4.822     1.721     1.608  0.8437 -0.1937  0.5007
 
              Baa    -0.0057    -3.061    -1.092    -1.021  0.6621  0.7097  0.2406
    14 H(1)   Bbb    -0.0013    -0.713    -0.255    -0.238 -0.3741  0.0348  0.9267
              Bcc     0.0071     3.774     1.347     1.259 -0.6493  0.7037 -0.2885
 
              Baa    -0.0057    -3.064    -1.093    -1.022 -0.2909 -0.5580  0.7772
    15 H(1)   Bbb    -0.0033    -1.758    -0.627    -0.587  0.0665  0.7986  0.5982
              Bcc     0.0090     4.822     1.721     1.609  0.9545 -0.2257  0.1952
 
              Baa    -0.0041    -2.205    -0.787    -0.736  0.2993  0.2770  0.9131
    16 H(1)   Bbb    -0.0010    -0.520    -0.185    -0.173  0.9539 -0.0658 -0.2927
              Bcc     0.0051     2.725     0.972     0.909 -0.0210  0.9586 -0.2839
 
              Baa    -0.0062    -3.301    -1.178    -1.101  0.0733 -0.0758  0.9944
    17 H(1)   Bbb    -0.0017    -0.914    -0.326    -0.305  0.9916 -0.1009 -0.0807
              Bcc     0.0079     4.215     1.504     1.406  0.1065  0.9920  0.0677
 
              Baa    -0.0052    -2.794    -0.997    -0.932 -0.5266  0.3236  0.7861
    18 H(1)   Bbb    -0.0027    -1.455    -0.519    -0.485  0.8330  0.0117  0.5532
              Bcc     0.0080     4.249     1.516     1.417  0.1698  0.9461 -0.2757
 

 ---------------------------------------------------------------------------------

 No NMR shielding tensors so no spin-rotation constants.
 Leave Link  601 at Thu Apr 26 16:14:14 2018, MaxMem=  671088640 cpu:      14.9
 (Enter /shared/apps/gaussian/G09_LINUX_LINDA/g09/l9999.exe)
 1\1\GINC-COMPUTE-3-045\FOpt\UHF\6-31G(d)\C5H11O2(2)\ROOT\26-Apr-2018\0
 \\#p hf/6-31g* Opt=(ModRedun,Loose) Int(Grid=SG1)\\Gaussian input prep
 ared by ASE\\0,2\O,-3.1677110267,0.1726328908,-0.7476667529\O,-3.88614
 79138,1.3155961813,-0.5222390235\C,0.2294214073,0.366290345,-1.0897075
 529\C,0.9173683809,-0.1329613644,-0.0288686241\C,-0.906573685,1.277007
 5021,-1.0518092584\C,2.0630405533,-1.0905728413,-0.2376433221\C,0.6218
 264678,0.2011652024,1.4108884294\H,-4.2817786105,1.5017804182,-1.36573
 79507\H,0.5164295043,0.020965359,-2.0695286883\H,-2.0106914754,0.57806
 47763,-0.9472873431\H,-1.0877952564,1.8148173262,-1.9717682116\H,-1.01
 30635132,1.9108996436,-0.1859157656\H,1.8691184281,-2.0391604333,0.258
 0949081\H,2.2390776828,-1.2898491796,-1.2881771544\H,2.9817791206,-0.6
 940816801,0.1891017215\H,-0.2334955755,0.8508615823,1.5323182436\H,0.4
 254813924,-0.7083035633,1.9733362123\H,1.4807549096,0.6805567162,1.875
 4888287\\Version=EM64L-G09RevB.01\State=2-A\HF=-345.2575083\S2=1.00248
 6\S2-1=0.\S2A=0.77679\RMSD=7.688e-09\RMSF=5.078e-04\Dipole=0.5832757,0
 .3166259,-0.5447553\Quadrupole=-1.0912208,-0.5689115,1.6601323,-3.2318
 591,4.673742,-1.9457241\PG=C01 [X(C5H11O2)]\\@


 "WOULD YOU TELL ME PLEASE, WHICH WAY I OUGHT TO WALK FROM HERE?"
 "THAT DEPENDS A GREAT DEAL ON WHERE YOU WANT TO GO," SAID THE CAT.
 "I DON'T MUCH CARE WHERE -- ", SAID ALICE.
 "THEN IT DOESN'T MATTER WHICH WAY YOU WALK," SAID THE CAT.

                                      -- LEWIS CARROLL
 Job cpu time:  0 days  4 hours 21 minutes 42.4 seconds.
 File lengths (MBytes):  RWF=     47 Int=      0 D2E=      0 Chk=      3 Scr=      1
 Normal termination of Gaussian 09 at Thu Apr 26 16:14:15 2018.
