 Entering Gaussian System, Link 0=g09
 Initial command:
 /shared/apps/gaussian/G09_LINUX_LINDA/g09/l1.exe /home/harms.n/Code/AutoTST/ipython_notebooks/Gau-37350.inp -scrdir=/home/harms.n/Code/AutoTST/ipython_notebooks/
 Entering Link 1 = /shared/apps/gaussian/G09_LINUX_LINDA/g09/l1.exe PID=     37351.
  
 Copyright (c) 1988,1990,1992,1993,1995,1998,2003,2009,2010,
            Gaussian, Inc.  All Rights Reserved.
  
 This is part of the Gaussian(R) 09 program.  It is based on
 the Gaussian(R) 03 system (copyright 2003, Gaussian, Inc.),
 the Gaussian(R) 98 system (copyright 1998, Gaussian, Inc.),
 the Gaussian(R) 94 system (copyright 1995, Gaussian, Inc.),
 the Gaussian 92(TM) system (copyright 1992, Gaussian, Inc.),
 the Gaussian 90(TM) system (copyright 1990, Gaussian, Inc.),
 the Gaussian 88(TM) system (copyright 1988, Gaussian, Inc.),
 the Gaussian 86(TM) system (copyright 1986, Carnegie Mellon
 University), and the Gaussian 82(TM) system (copyright 1983,
 Carnegie Mellon University). Gaussian is a federally registered
 trademark of Gaussian, Inc.
  
 This software contains proprietary and confidential information,
 including trade secrets, belonging to Gaussian, Inc.
  
 This software is provided under written license and may be
 used, copied, transmitted, or stored only in accord with that
 written license.
  
 The following legend is applicable only to US Government
 contracts under FAR:
  
                    RESTRICTED RIGHTS LEGEND
  
 Use, reproduction and disclosure by the US Government is
 subject to restrictions as set forth in subparagraphs (a)
 and (c) of the Commercial Computer Software - Restricted
 Rights clause in FAR 52.227-19.
  
 Gaussian, Inc.
 340 Quinnipiac St., Bldg. 40, Wallingford CT 06492
  
  
 ---------------------------------------------------------------
 Warning -- This program may not be used in any manner that
 competes with the business of Gaussian, Inc. or will provide
 assistance to any competitor of Gaussian, Inc.  The licensee
 of this program is prohibited from giving any competitor of
 Gaussian, Inc. access to this program.  By using this program,
 the user acknowledges that Gaussian, Inc. is engaged in the
 business of creating and licensing software in the field of
 computational chemistry and represents and warrants to the
 licensee that it is not a competitor of Gaussian, Inc. and that
 it will not use this program in any manner prohibited above.
 ---------------------------------------------------------------
  

 Cite this work as:
 Gaussian 09, Revision B.01,
 M. J. Frisch, G. W. Trucks, H. B. Schlegel, G. E. Scuseria, 
 M. A. Robb, J. R. Cheeseman, G. Scalmani, V. Barone, B. Mennucci, 
 G. A. Petersson, H. Nakatsuji, M. Caricato, X. Li, H. P. Hratchian, 
 A. F. Izmaylov, J. Bloino, G. Zheng, J. L. Sonnenberg, M. Hada, 
 M. Ehara, K. Toyota, R. Fukuda, J. Hasegawa, M. Ishida, T. Nakajima, 
 Y. Honda, O. Kitao, H. Nakai, T. Vreven, J. A. Montgomery, Jr., 
 J. E. Peralta, F. Ogliaro, M. Bearpark, J. J. Heyd, E. Brothers, 
 K. N. Kudin, V. N. Staroverov, T. Keith, R. Kobayashi, J. Normand, 
 K. Raghavachari, A. Rendell, J. C. Burant, S. S. Iyengar, J. Tomasi, 
 M. Cossi, N. Rega, J. M. Millam, M. Klene, J. E. Knox, J. B. Cross, 
 V. Bakken, C. Adamo, J. Jaramillo, R. Gomperts, R. E. Stratmann, 
 O. Yazyev, A. J. Austin, R. Cammi, C. Pomelli, J. W. Ochterski, 
 R. L. Martin, K. Morokuma, V. G. Zakrzewski, G. A. Voth, 
 P. Salvador, J. J. Dannenberg, S. Dapprich, A. D. Daniels, 
 O. Farkas, J. B. Foresman, J. V. Ortiz, J. Cioslowski, 
 and D. J. Fox, Gaussian, Inc., Wallingford CT, 2010.
 
 ******************************************
 Gaussian 09:  EM64L-G09RevB.01 12-Aug-2010
                26-Apr-2018 
 ******************************************
 %nprocshared=20
 Will use up to   20 processors via shared memory.
 %mem=5GB
 ---------------------------------------------
 #p hf/6-31g* opt=(ts,calcfc,noeigentest) freq
 ---------------------------------------------
 1/5=1,10=4,11=1,18=20,38=1/1,3;
 2/9=110,12=2,17=6,18=5,40=1/2;
 3/5=1,6=6,7=1,11=9,16=1,25=1,30=1,71=2/1,2,3;
 4//1;
 5/5=2,38=5/2;
 8/6=4,10=90,11=11/1;
 11/6=1,8=1,9=11,15=111,16=1/1,2,10;
 10/6=1,7=6,13=1/2;
 6/7=2,8=2,9=2,10=2,28=1/1;
 7/10=1,18=20,25=1/1,2,3,16;
 1/5=1,10=4,11=1,18=20/3(2);
 2/9=110/2;
 99//99;
 2/9=110/2;
 3/5=1,6=6,7=1,11=9,16=1,25=1,30=1,71=1/1,2,3;
 4/5=5,16=3/1;
 5/5=2,38=5/2;
 7//1,2,3,16;
 1/5=1,11=1,18=20/3(-5);
 2/9=110/2;
 6/7=2,8=2,9=2,10=2,19=2,28=1/1;
 99/9=1/99;
 Leave Link    1 at Thu Apr 26 16:17:03 2018, MaxMem=  671088640 cpu:       2.1
 (Enter /shared/apps/gaussian/G09_LINUX_LINDA/g09/l101.exe)
 ------------------------------
 Gaussian input prepared by ASE
 ------------------------------
 Symbolic Z-matrix:
 Charge =  0 Multiplicity = 2
 O                    -3.16687   0.17086  -0.75057 
 O                    -3.88637   1.31333  -0.52294 
 C                     0.22952   0.36521  -1.09002 
 C                     0.91758  -0.1336   -0.02905 
 C                    -0.9059    1.27604  -1.05245 
 C                     2.06357  -1.09089  -0.23757 
 C                     0.62187   0.20073   1.41063 
 H                    -4.28202   1.49922  -1.36649 
 H                     0.51669   0.01979  -2.06976 
 H                    -2.01394   0.59406  -0.93958 
 H                    -1.08811   1.81315  -1.97244 
 H                    -1.01349   1.90962  -0.1866 
 H                     1.86992  -2.03944   0.25835 
 H                     2.23972  -1.29032  -1.28806 
 H                     2.98216  -0.69402   0.18913 
 H                    -0.23367   0.85018   1.53188 
 H                     0.42578  -0.70869   1.97325 
 H                     1.48062   0.68049   1.87517 
 
 NAtoms=     18 NQM=     18 NQMF=      0 NMic=      0 NMicF=      0 NTot=     18.
                    Isotopes and Nuclear Properties:
 (Nuclear quadrupole moments (NQMom) in fm**2, nuclear magnetic moments (NMagM)
  in nuclear magnetons)

  Atom         1           2           3           4           5           6           7           8           9          10
 IAtWgt=          16          16          12          12          12          12          12           1           1           1
 AtmWgt=  15.9949146  15.9949146  12.0000000  12.0000000  12.0000000  12.0000000  12.0000000   1.0078250   1.0078250   1.0078250
 NucSpn=           0           0           0           0           0           0           0           1           1           1
 AtZEff=   0.0000000   0.0000000   0.0000000   0.0000000   0.0000000   0.0000000   0.0000000   0.0000000   0.0000000   0.0000000
 NQMom=    0.0000000   0.0000000   0.0000000   0.0000000   0.0000000   0.0000000   0.0000000   0.0000000   0.0000000   0.0000000
 NMagM=    0.0000000   0.0000000   0.0000000   0.0000000   0.0000000   0.0000000   0.0000000   2.7928460   2.7928460   2.7928460

  Atom        11          12          13          14          15          16          17          18
 IAtWgt=           1           1           1           1           1           1           1           1
 AtmWgt=   1.0078250   1.0078250   1.0078250   1.0078250   1.0078250   1.0078250   1.0078250   1.0078250
 NucSpn=           1           1           1           1           1           1           1           1
 AtZEff=   0.0000000   0.0000000   0.0000000   0.0000000   0.0000000   0.0000000   0.0000000   0.0000000
 NQMom=    0.0000000   0.0000000   0.0000000   0.0000000   0.0000000   0.0000000   0.0000000   0.0000000
 NMagM=    2.7928460   2.7928460   2.7928460   2.7928460   2.7928460   2.7928460   2.7928460   2.7928460
 Leave Link  101 at Thu Apr 26 16:17:04 2018, MaxMem=  671088640 cpu:       1.2
 (Enter /shared/apps/gaussian/G09_LINUX_LINDA/g09/l103.exe)

 GradGradGradGradGradGradGradGradGradGradGradGradGradGradGradGradGradGrad
 Berny optimization.
 Initialization pass.
                           ----------------------------
                           !    Initial Parameters    !
                           ! (Angstroms and Degrees)  !
 --------------------------                            --------------------------
 ! Name  Definition              Value          Derivative Info.                !
 --------------------------------------------------------------------------------
 ! R1    R(1,2)                  1.3692         calculate D2E/DX2 analytically  !
 ! R2    R(1,10)                 1.2426         calculate D2E/DX2 analytically  !
 ! R3    R(2,8)                  0.9501         calculate D2E/DX2 analytically  !
 ! R4    R(3,4)                  1.3594         calculate D2E/DX2 analytically  !
 ! R5    R(3,5)                  1.4561         calculate D2E/DX2 analytically  !
 ! R6    R(3,9)                  1.0778         calculate D2E/DX2 analytically  !
 ! R7    R(4,6)                  1.5077         calculate D2E/DX2 analytically  !
 ! R8    R(4,7)                  1.5073         calculate D2E/DX2 analytically  !
 ! R9    R(5,10)                 1.306          calculate D2E/DX2 analytically  !
 ! R10   R(5,11)                 1.0808         calculate D2E/DX2 analytically  !
 ! R11   R(5,12)                 1.0783         calculate D2E/DX2 analytically  !
 ! R12   R(6,13)                 1.0877         calculate D2E/DX2 analytically  !
 ! R13   R(6,14)                 1.0837         calculate D2E/DX2 analytically  !
 ! R14   R(6,15)                 1.0878         calculate D2E/DX2 analytically  !
 ! R15   R(7,16)                 1.0809         calculate D2E/DX2 analytically  !
 ! R16   R(7,17)                 1.0872         calculate D2E/DX2 analytically  !
 ! R17   R(7,18)                 1.0879         calculate D2E/DX2 analytically  !
 ! A1    A(2,1,10)             103.2193         calculate D2E/DX2 analytically  !
 ! A2    A(1,2,8)              103.5603         calculate D2E/DX2 analytically  !
 ! A3    A(4,3,5)              127.1631         calculate D2E/DX2 analytically  !
 ! A4    A(4,3,9)              117.1942         calculate D2E/DX2 analytically  !
 ! A5    A(5,3,9)              115.5748         calculate D2E/DX2 analytically  !
 ! A6    A(3,4,6)              120.6479         calculate D2E/DX2 analytically  !
 ! A7    A(3,4,7)              124.3873         calculate D2E/DX2 analytically  !
 ! A8    A(6,4,7)              114.9647         calculate D2E/DX2 analytically  !
 ! A9    A(3,5,10)             109.7042         calculate D2E/DX2 analytically  !
 ! A10   A(3,5,11)             114.8582         calculate D2E/DX2 analytically  !
 ! A11   A(3,5,12)             117.7798         calculate D2E/DX2 analytically  !
 ! A12   A(10,5,11)            100.9552         calculate D2E/DX2 analytically  !
 ! A13   A(10,5,12)             98.7877         calculate D2E/DX2 analytically  !
 ! A14   A(11,5,12)            112.0059         calculate D2E/DX2 analytically  !
 ! A15   A(4,6,13)             110.8124         calculate D2E/DX2 analytically  !
 ! A16   A(4,6,14)             111.992          calculate D2E/DX2 analytically  !
 ! A17   A(4,6,15)             110.8513         calculate D2E/DX2 analytically  !
 ! A18   A(13,6,14)            108.084          calculate D2E/DX2 analytically  !
 ! A19   A(13,6,15)            106.8358         calculate D2E/DX2 analytically  !
 ! A20   A(14,6,15)            108.0667         calculate D2E/DX2 analytically  !
 ! A21   A(4,7,16)             113.3093         calculate D2E/DX2 analytically  !
 ! A22   A(4,7,17)             110.1286         calculate D2E/DX2 analytically  !
 ! A23   A(4,7,18)             110.5377         calculate D2E/DX2 analytically  !
 ! A24   A(16,7,17)            107.5639         calculate D2E/DX2 analytically  !
 ! A25   A(16,7,18)            108.1749         calculate D2E/DX2 analytically  !
 ! A26   A(17,7,18)            106.8748         calculate D2E/DX2 analytically  !
 ! A27   A(1,10,5)             168.0135         calculate D2E/DX2 analytically  !
 ! D1    D(10,1,2,8)            97.9615         calculate D2E/DX2 analytically  !
 ! D2    D(2,1,10,5)             9.8349         calculate D2E/DX2 analytically  !
 ! D3    D(5,3,4,6)            178.9796         calculate D2E/DX2 analytically  !
 ! D4    D(5,3,4,7)             -0.97           calculate D2E/DX2 analytically  !
 ! D5    D(9,3,4,6)              2.1271         calculate D2E/DX2 analytically  !
 ! D6    D(9,3,4,7)           -177.8226         calculate D2E/DX2 analytically  !
 ! D7    D(4,3,5,10)           -87.4555         calculate D2E/DX2 analytically  !
 ! D8    D(4,3,5,11)           159.6898         calculate D2E/DX2 analytically  !
 ! D9    D(4,3,5,12)            24.3882         calculate D2E/DX2 analytically  !
 ! D10   D(9,3,5,10)            89.4409         calculate D2E/DX2 analytically  !
 ! D11   D(9,3,5,11)           -23.4139         calculate D2E/DX2 analytically  !
 ! D12   D(9,3,5,12)          -158.7154         calculate D2E/DX2 analytically  !
 ! D13   D(3,4,6,13)          -120.2063         calculate D2E/DX2 analytically  !
 ! D14   D(3,4,6,14)             0.5677         calculate D2E/DX2 analytically  !
 ! D15   D(3,4,6,15)           121.3467         calculate D2E/DX2 analytically  !
 ! D16   D(7,4,6,13)            59.7478         calculate D2E/DX2 analytically  !
 ! D17   D(7,4,6,14)          -179.4782         calculate D2E/DX2 analytically  !
 ! D18   D(7,4,6,15)           -58.6991         calculate D2E/DX2 analytically  !
 ! D19   D(3,4,7,16)             2.7582         calculate D2E/DX2 analytically  !
 ! D20   D(3,4,7,17)           123.2808         calculate D2E/DX2 analytically  !
 ! D21   D(3,4,7,18)          -118.8499         calculate D2E/DX2 analytically  !
 ! D22   D(6,4,7,16)          -177.194          calculate D2E/DX2 analytically  !
 ! D23   D(6,4,7,17)           -56.6714         calculate D2E/DX2 analytically  !
 ! D24   D(6,4,7,18)            61.198          calculate D2E/DX2 analytically  !
 ! D25   D(3,5,10,1)           160.7356         calculate D2E/DX2 analytically  !
 ! D26   D(11,5,10,1)          -77.6546         calculate D2E/DX2 analytically  !
 ! D27   D(12,5,10,1)           36.9349         calculate D2E/DX2 analytically  !
 --------------------------------------------------------------------------------
 Trust Radius=3.00D-01 FncErr=1.00D-07 GrdErr=1.00D-07
 Number of steps in this run=     81 maximum allowed number of steps=    108.
 Search for a saddle point of order  1.
 GradGradGradGradGradGradGradGradGradGradGradGradGradGradGradGradGradGrad

 Leave Link  103 at Thu Apr 26 16:17:04 2018, MaxMem=  671088640 cpu:       0.2
 (Enter /shared/apps/gaussian/G09_LINUX_LINDA/g09/l202.exe)
                          Input orientation:                          
 ---------------------------------------------------------------------
 Center     Atomic      Atomic             Coordinates (Angstroms)
 Number     Number       Type             X           Y           Z
 ---------------------------------------------------------------------
      1          8           0       -3.166870    0.170863   -0.750569
      2          8           0       -3.886373    1.313335   -0.522937
      3          6           0        0.229520    0.365212   -1.090021
      4          6           0        0.917577   -0.133603   -0.029048
      5          6           0       -0.905898    1.276041   -1.052453
      6          6           0        2.063566   -1.090889   -0.237574
      7          6           0        0.621865    0.200728    1.410627
      8          1           0       -4.282025    1.499216   -1.366493
      9          1           0        0.516691    0.019790   -2.069759
     10          1           0       -2.013937    0.594059   -0.939582
     11          1           0       -1.088112    1.813146   -1.972438
     12          1           0       -1.013493    1.909617   -0.186602
     13          1           0        1.869922   -2.039437    0.258348
     14          1           0        2.239715   -1.290324   -1.288059
     15          1           0        2.982158   -0.694019    0.189133
     16          1           0       -0.233669    0.850177    1.531884
     17          1           0        0.425782   -0.708689    1.973251
     18          1           0        1.480620    0.680487    1.875169
 ---------------------------------------------------------------------
                    Distance matrix (angstroms):
                    1          2          3          4          5
     1  O    0.000000
     2  O    1.369212   0.000000
     3  C    3.418839   4.261583   0.000000
     4  C    4.158846   5.041378   1.359376   0.000000
     5  C    2.534669   3.027376   1.456089   2.521808   0.000000
     6  C    5.404872   6.423667   2.492112   1.507704   3.883826
     7  C    4.361900   5.029987   2.536578   1.507278   3.091460
     8  H    1.840504   0.950094   4.660089   5.611659   3.398037
     9  H    3.915573   4.842818   1.077808   2.085363   2.153332
    10  H    1.242608   2.048650   2.260111   3.154733   1.305982
    11  H    2.917412   3.190788   2.147400   3.404319   1.080767
    12  H    2.824598   2.953322   2.178631   2.815778   1.078283
    13  H    5.592192   6.707191   3.208014   2.149829   4.518382
    14  H    5.626289   6.700254   2.611686   2.161287   4.066525
    15  H    6.280256   7.191191   3.214844   2.150387   4.532070
    16  H    3.778191   4.216521   2.706311   2.174787   2.704081
    17  H    4.593469   5.377194   3.251987   2.140511   3.855828
    18  H    5.362217   5.912361   3.233728   2.146113   3.823758
                    6          7          8          9         10
     6  C    0.000000
     7  C    2.542310   0.000000
     8  H    6.946195   5.783304   0.000000
     9  H    2.642599   3.486672   5.070597   0.000000
    10  H    4.467426   3.553258   2.479069   2.830400   0.000000
    11  H    4.623445   4.119350   3.266007   2.408525   1.846650
    12  H    4.298131   2.854092   3.499124   3.075579   1.816193
    13  H    1.087742   2.811358   7.280702   3.389946   4.843005
    14  H    1.083661   3.481893   7.093714   2.301361   4.665393
    15  H    1.087840   2.804212   7.745877   3.419158   5.281488
    16  H    3.489414   1.080938   5.021058   3.771527   3.056648
    17  H    2.777798   1.087214   6.179982   4.109121   4.016713
    18  H    2.818028   1.087854   6.662339   4.114381   4.488008
                   11         12         13         14         15
    11  H    0.000000
    12  H    1.789996   0.000000
    13  H    5.344976   4.909898   0.000000
    14  H    4.601558   4.694273   1.757639   0.000000
    15  H    5.246463   4.783862   1.747001   1.757526   0.000000
    16  H    3.733317   2.164194   3.794320   4.318733   3.811702
    17  H    4.921381   3.686734   2.607168   3.776877   3.117427
    18  H    4.762917   3.461540   3.188048   3.803463   2.643219
                   16         17         18
    16  H    0.000000
    17  H    1.749212   0.000000
    18  H    1.756538   1.747029   0.000000
 Stoichiometry    C5H11O2(2)
 Framework group  C1[X(C5H11O2)]
 Deg. of freedom    48
 Full point group                 C1      NOp   1
 Largest Abelian subgroup         C1      NOp   1
 Largest concise Abelian subgroup C1      NOp   1
                         Standard orientation:                         
 ---------------------------------------------------------------------
 Center     Atomic      Atomic             Coordinates (Angstroms)
 Number     Number       Type             X           Y           Z
 ---------------------------------------------------------------------
      1          8           0       -2.386275   -0.019724    0.875408
      2          8           0       -3.354580    0.380214   -0.006169
      3          6           0        0.697441   -0.905290   -0.305664
      4          6           0        1.672476    0.001312   -0.031289
      5          6           0       -0.628407   -0.635420   -0.843709
      6          6           0        2.992210   -0.441014    0.548212
      7          6           0        1.545751    1.484893   -0.265411
      8          1           0       -3.926362   -0.376103   -0.067239
      9          1           0        0.898659   -1.934970   -0.058804
     10          1           0       -1.455394   -0.375223    0.133009
     11          1           0       -1.113827   -1.484776   -1.303077
     12          1           0       -0.763394    0.266776   -1.418613
     13          1           0        3.169384    0.032213    1.511460
     14          1           0        3.034505   -1.514776    0.688097
     15          1           0        3.816218   -0.152634   -0.100820
     16          1           0        0.573408    1.777961   -0.635662
     17          1           0        1.720831    2.026174    0.661086
     18          1           0        2.295993    1.824552   -0.976182
 ---------------------------------------------------------------------
 Rotational constants (GHZ):      5.0687084      0.9214139      0.8728339
 Leave Link  202 at Thu Apr 26 16:17:04 2018, MaxMem=  671088640 cpu:       0.8
 (Enter /shared/apps/gaussian/G09_LINUX_LINDA/g09/l301.exe)
 Standard basis: 6-31G(d) (6D, 7F)
 Ernie: Thresh=  0.10000D-02 Tol=  0.10000D-05 Strict=F.
 There are   127 symmetry adapted basis functions of A   symmetry.
 Integral buffers will be    131072 words long.
 Raffenetti 2 integral format.
 Two-electron integral symmetry is turned on.
   127 basis functions,   240 primitive gaussians,   127 cartesian basis functions
    29 alpha electrons       28 beta electrons
       nuclear repulsion energy       295.1058802802 Hartrees.
 IExCor=    0 DFT=F Ex=HF Corr=None ExCW=0 ScaHFX=  1.000000
 ScaDFX=  1.000000  1.000000  1.000000  1.000000 ScalE2=  1.000000  1.000000
 IRadAn=      0 IRanWt=     -1 IRanGd=            0 ICorTp=0
 NAtoms=   18 NActive=   18 NUniq=   18 SFac= 1.00D+00 NAtFMM=   50 NAOKFM=F Big=F
 Leave Link  301 at Thu Apr 26 16:17:04 2018, MaxMem=  671088640 cpu:       1.0
 (Enter /shared/apps/gaussian/G09_LINUX_LINDA/g09/l302.exe)
 NPDir=0 NMtPBC=     1 NCelOv=     1 NCel=       1 NClECP=     1 NCelD=      1
         NCelK=      1 NCelE2=     1 NClLst=     1 CellRange=     0.0.
 One-electron integrals computed using PRISM.
 NBasis=   127 RedAO= T  NBF=   127
 NBsUse=   127 1.00D-06 NBFU=   127
 Leave Link  302 at Thu Apr 26 16:17:05 2018, MaxMem=  671088640 cpu:       9.2
 (Enter /shared/apps/gaussian/G09_LINUX_LINDA/g09/l303.exe)
 DipDrv:  MaxL=1.
 Leave Link  303 at Thu Apr 26 16:17:05 2018, MaxMem=  671088640 cpu:       1.7
 (Enter /shared/apps/gaussian/G09_LINUX_LINDA/g09/l401.exe)
 Harris functional with IExCor=  205 diagonalized for initial guess.
 ExpMin= 1.61D-01 ExpMax= 5.48D+03 ExpMxC= 8.25D+02 IAcc=1 IRadAn=         1 AccDes= 0.00D+00
 HarFok:  IExCor=  205 AccDes= 0.00D+00 IRadAn=         1 IDoV= 1
 ScaDFX=  1.000000  1.000000  1.000000  1.000000
 FoFCou: FMM=F IPFlag=           0 FMFlag=      100000 FMFlg1=           0
         NFxFlg=           0 DoJE=T BraDBF=F KetDBF=T FulRan=T
         Omega=  0.000000  0.000000  1.000000  0.000000  0.000000 ICntrl=     500 IOpCl=  0
         NMat0=    1 NMatS0=    1 NMatT0=    0 NMatD0=    1 NMtDS0=    0 NMtDT0=    0
         I1Cent=           4 NGrid=           0.
 Petite list used in FoFCou.
 Harris En= -345.810891497224    
 Initial guess orbital symmetries:
 Alpha Orbitals:
       Occupied  (A) (A) (A) (A) (A) (A) (A) (A) (A) (A) (A) (A)
                 (A) (A) (A) (A) (A) (A) (A) (A) (A) (A) (A) (A)
                 (A) (A) (A) (A) (A)
       Virtual   (A) (A) (A) (A) (A) (A) (A) (A) (A) (A) (A) (A)
                 (A) (A) (A) (A) (A) (A) (A) (A) (A) (A) (A) (A)
                 (A) (A) (A) (A) (A) (A) (A) (A) (A) (A) (A) (A)
                 (A) (A) (A) (A) (A) (A) (A) (A) (A) (A) (A) (A)
                 (A) (A) (A) (A) (A) (A) (A) (A) (A) (A) (A) (A)
                 (A) (A) (A) (A) (A) (A) (A) (A) (A) (A) (A) (A)
                 (A) (A) (A) (A) (A) (A) (A) (A) (A) (A) (A) (A)
                 (A) (A) (A) (A) (A) (A) (A) (A) (A) (A) (A) (A)
                 (A) (A)
 Beta  Orbitals:
       Occupied  (A) (A) (A) (A) (A) (A) (A) (A) (A) (A) (A) (A)
                 (A) (A) (A) (A) (A) (A) (A) (A) (A) (A) (A) (A)
                 (A) (A) (A) (A)
       Virtual   (A) (A) (A) (A) (A) (A) (A) (A) (A) (A) (A) (A)
                 (A) (A) (A) (A) (A) (A) (A) (A) (A) (A) (A) (A)
                 (A) (A) (A) (A) (A) (A) (A) (A) (A) (A) (A) (A)
                 (A) (A) (A) (A) (A) (A) (A) (A) (A) (A) (A) (A)
                 (A) (A) (A) (A) (A) (A) (A) (A) (A) (A) (A) (A)
                 (A) (A) (A) (A) (A) (A) (A) (A) (A) (A) (A) (A)
                 (A) (A) (A) (A) (A) (A) (A) (A) (A) (A) (A) (A)
                 (A) (A) (A) (A) (A) (A) (A) (A) (A) (A) (A) (A)
                 (A) (A) (A)
 The electronic state of the initial guess is 2-A.
 Initial guess <Sx>= 0.0000 <Sy>= 0.0000 <Sz>= 0.5000 <S**2>= 0.7500 S= 0.5000
 Leave Link  401 at Thu Apr 26 16:17:08 2018, MaxMem=  671088640 cpu:      24.0
 (Enter /shared/apps/gaussian/G09_LINUX_LINDA/g09/l502.exe)
 UHF open shell SCF:
 Requested convergence on RMS density matrix=1.00D-08 within 128 cycles.
 Requested convergence on MAX density matrix=1.00D-06.
 Requested convergence on             energy=1.00D-06.
 No special actions if energy rises.
 Using DIIS extrapolation, IDIIS=  1040.
 Integral symmetry usage will be decided dynamically.
 Keep R1 and R2 ints in memory in canonical form, NReq=67191093.
 IEnd=       70048 IEndB=       70048 NGot=   671088640 MDV=   604978949
 LenX=   604978949 LenY=   604962379
 Symmetry not used in FoFDir.
 MinBra= 0 MaxBra= 2 Meth= 1.
 IRaf=       0 NMat=   1 IRICut=       1 DoRegI=T DoRafI=F ISym2E= 0 JSym2E=0.

 Cycle   1  Pass 1  IDiag  1:
 E= -344.867870456521    
 DIIS: error= 4.23D-02 at cycle   1 NSaved=   1.
 NSaved= 1 IEnMin= 1 EnMin= -344.867870456521     IErMin= 1 ErrMin= 4.23D-02
 ErrMax= 4.23D-02 EMaxC= 1.00D-01 BMatC= 2.00D+00 BMatP= 2.00D+00
 IDIUse=3 WtCom= 5.77D-01 WtEn= 4.23D-01
 Coeff-Com:  0.100D+01
 Coeff-En:   0.100D+01
 Coeff:      0.100D+01
 Gap=     0.602 Goal=   None    Shift=    0.000
 Gap=     0.524 Goal=   None    Shift=    0.000
 GapD=    0.524 DampG=2.000 DampE=0.500 DampFc=1.0000 IDamp=-1.
 RMSDP=5.76D-03 MaxDP=1.13D-01              OVMax= 1.88D-01

 Cycle   2  Pass 1  IDiag  1:
 E= -345.185284018315     Delta-E=       -0.317413561794 Rises=F Damp=F
 DIIS: error= 1.73D-02 at cycle   2 NSaved=   2.
 NSaved= 2 IEnMin= 2 EnMin= -345.185284018315     IErMin= 2 ErrMin= 1.73D-02
 ErrMax= 1.73D-02 EMaxC= 1.00D-01 BMatC= 2.26D-01 BMatP= 2.00D+00
 IDIUse=3 WtCom= 8.27D-01 WtEn= 1.73D-01
 Coeff-Com:  0.177D+00 0.823D+00
 Coeff-En:   0.000D+00 0.100D+01
 Coeff:      0.146D+00 0.854D+00
 Gap=     0.578 Goal=   None    Shift=    0.000
 Gap=     0.346 Goal=   None    Shift=    0.000
 RMSDP=2.63D-03 MaxDP=4.54D-02 DE=-3.17D-01 OVMax= 9.29D-02

 Cycle   3  Pass 1  IDiag  1:
 E= -345.241469308085     Delta-E=       -0.056185289770 Rises=F Damp=F
 DIIS: error= 5.81D-03 at cycle   3 NSaved=   3.
 NSaved= 3 IEnMin= 3 EnMin= -345.241469308085     IErMin= 3 ErrMin= 5.81D-03
 ErrMax= 5.81D-03 EMaxC= 1.00D-01 BMatC= 1.96D-02 BMatP= 2.26D-01
 IDIUse=3 WtCom= 9.42D-01 WtEn= 5.81D-02
 Coeff-Com: -0.204D-01 0.148D+00 0.872D+00
 Coeff-En:   0.000D+00 0.000D+00 0.100D+01
 Coeff:     -0.192D-01 0.139D+00 0.880D+00
 Gap=     0.500 Goal=   None    Shift=    0.000
 Gap=     0.353 Goal=   None    Shift=    0.000
 RMSDP=6.86D-04 MaxDP=1.40D-02 DE=-5.62D-02 OVMax= 4.94D-02

 Cycle   4  Pass 1  IDiag  1:
 E= -345.249939121612     Delta-E=       -0.008469813527 Rises=F Damp=F
 DIIS: error= 3.06D-03 at cycle   4 NSaved=   4.
 NSaved= 4 IEnMin= 4 EnMin= -345.249939121612     IErMin= 4 ErrMin= 3.06D-03
 ErrMax= 3.06D-03 EMaxC= 1.00D-01 BMatC= 3.82D-03 BMatP= 1.96D-02
 IDIUse=3 WtCom= 9.69D-01 WtEn= 3.06D-02
 Coeff-Com: -0.752D-02-0.190D-01 0.898D-01 0.937D+00
 Coeff-En:   0.000D+00 0.000D+00 0.000D+00 0.100D+01
 Coeff:     -0.729D-02-0.184D-01 0.870D-01 0.939D+00
 Gap=     0.498 Goal=   None    Shift=    0.000
 Gap=     0.371 Goal=   None    Shift=    0.000
 RMSDP=3.71D-04 MaxDP=1.11D-02 DE=-8.47D-03 OVMax= 2.79D-02

 Cycle   5  Pass 1  IDiag  1:
 E= -345.252916629418     Delta-E=       -0.002977507805 Rises=F Damp=F
 DIIS: error= 1.77D-03 at cycle   5 NSaved=   5.
 NSaved= 5 IEnMin= 5 EnMin= -345.252916629418     IErMin= 5 ErrMin= 1.77D-03
 ErrMax= 1.77D-03 EMaxC= 1.00D-01 BMatC= 1.84D-03 BMatP= 3.82D-03
 IDIUse=3 WtCom= 9.82D-01 WtEn= 1.77D-02
 Coeff-Com:  0.118D-01-0.611D-01-0.414D+00-0.162D+00 0.162D+01
 Coeff-En:   0.000D+00 0.000D+00 0.000D+00 0.000D+00 0.100D+01
 Coeff:      0.116D-01-0.600D-01-0.406D+00-0.159D+00 0.161D+01
 Gap=     0.508 Goal=   None    Shift=    0.000
 Gap=     0.399 Goal=   None    Shift=    0.000
 RMSDP=5.59D-04 MaxDP=1.72D-02 DE=-2.98D-03 OVMax= 3.99D-02

 Cycle   6  Pass 1  IDiag  1:
 E= -345.255593931489     Delta-E=       -0.002677302071 Rises=F Damp=F
 DIIS: error= 1.13D-03 at cycle   6 NSaved=   6.
 NSaved= 6 IEnMin= 6 EnMin= -345.255593931489     IErMin= 6 ErrMin= 1.13D-03
 ErrMax= 1.13D-03 EMaxC= 1.00D-01 BMatC= 4.88D-04 BMatP= 1.84D-03
 IDIUse=3 WtCom= 9.89D-01 WtEn= 1.13D-02
 Coeff-Com:  0.259D-02 0.223D-02-0.426D-01-0.143D+00 0.163D+00 0.102D+01
 Coeff-En:   0.000D+00 0.000D+00 0.000D+00 0.000D+00 0.000D+00 0.100D+01
 Coeff:      0.256D-02 0.221D-02-0.422D-01-0.141D+00 0.161D+00 0.102D+01
 Gap=     0.510 Goal=   None    Shift=    0.000
 Gap=     0.405 Goal=   None    Shift=    0.000
 RMSDP=1.91D-04 MaxDP=6.73D-03 DE=-2.68D-03 OVMax= 1.53D-02

 Cycle   7  Pass 1  IDiag  1:
 E= -345.256189760973     Delta-E=       -0.000595829484 Rises=F Damp=F
 DIIS: error= 9.93D-04 at cycle   7 NSaved=   7.
 NSaved= 7 IEnMin= 7 EnMin= -345.256189760973     IErMin= 7 ErrMin= 9.93D-04
 ErrMax= 9.93D-04 EMaxC= 1.00D-01 BMatC= 2.86D-04 BMatP= 4.88D-04
 IDIUse=3 WtCom= 9.90D-01 WtEn= 9.93D-03
 Coeff-Com: -0.383D-02 0.239D-01 0.142D+00 0.477D-01-0.592D+00 0.122D+00
 Coeff-Com:  0.126D+01
 Coeff-En:   0.000D+00 0.000D+00 0.000D+00 0.000D+00 0.000D+00 0.000D+00
 Coeff-En:   0.100D+01
 Coeff:     -0.379D-02 0.236D-01 0.140D+00 0.473D-01-0.586D+00 0.120D+00
 Coeff:      0.126D+01
 Gap=     0.513 Goal=   None    Shift=    0.000
 Gap=     0.409 Goal=   None    Shift=    0.000
 RMSDP=2.15D-04 MaxDP=8.45D-03 DE=-5.96D-04 OVMax= 1.98D-02

 Cycle   8  Pass 1  IDiag  1:
 E= -345.256742968899     Delta-E=       -0.000553207926 Rises=F Damp=F
 DIIS: error= 7.99D-04 at cycle   8 NSaved=   8.
 NSaved= 8 IEnMin= 8 EnMin= -345.256742968899     IErMin= 8 ErrMin= 7.99D-04
 ErrMax= 7.99D-04 EMaxC= 1.00D-01 BMatC= 1.61D-04 BMatP= 2.86D-04
 IDIUse=3 WtCom= 9.92D-01 WtEn= 7.99D-03
 Coeff-Com:  0.316D-02-0.286D-01-0.141D+00 0.442D-01 0.510D+00-0.689D+00
 Coeff-Com: -0.147D+01 0.277D+01
 Coeff-En:   0.000D+00 0.000D+00 0.000D+00 0.000D+00 0.000D+00 0.000D+00
 Coeff-En:   0.000D+00 0.100D+01
 Coeff:      0.313D-02-0.283D-01-0.140D+00 0.438D-01 0.506D+00-0.684D+00
 Coeff:     -0.146D+01 0.276D+01
 Gap=     0.520 Goal=   None    Shift=    0.000
 Gap=     0.417 Goal=   None    Shift=    0.000
 RMSDP=3.90D-04 MaxDP=1.60D-02 DE=-5.53D-04 OVMax= 3.70D-02

 Cycle   9  Pass 1  IDiag  1:
 E= -345.257395708010     Delta-E=       -0.000652739111 Rises=F Damp=F
 DIIS: error= 4.27D-04 at cycle   9 NSaved=   9.
 NSaved= 9 IEnMin= 9 EnMin= -345.257395708010     IErMin= 9 ErrMin= 4.27D-04
 ErrMax= 4.27D-04 EMaxC= 1.00D-01 BMatC= 4.25D-05 BMatP= 1.61D-04
 IDIUse=3 WtCom= 9.96D-01 WtEn= 4.27D-03
 Coeff-Com:  0.106D-02-0.270D-02-0.273D-01-0.540D-01 0.190D+00 0.143D+00
 Coeff-Com: -0.603D-01-0.957D+00 0.177D+01
 Coeff-En:   0.000D+00 0.000D+00 0.000D+00 0.000D+00 0.000D+00 0.000D+00
 Coeff-En:   0.000D+00 0.000D+00 0.100D+01
 Coeff:      0.106D-02-0.269D-02-0.272D-01-0.537D-01 0.189D+00 0.142D+00
 Coeff:     -0.600D-01-0.953D+00 0.176D+01
 Gap=     0.524 Goal=   None    Shift=    0.000
 Gap=     0.420 Goal=   None    Shift=    0.000
 RMSDP=2.15D-04 MaxDP=9.03D-03 DE=-6.53D-04 OVMax= 2.01D-02

 Cycle  10  Pass 1  IDiag  1:
 E= -345.257543556325     Delta-E=       -0.000147848315 Rises=F Damp=F
 DIIS: error= 1.48D-04 at cycle  10 NSaved=  10.
 NSaved=10 IEnMin=10 EnMin= -345.257543556325     IErMin=10 ErrMin= 1.48D-04
 ErrMax= 1.48D-04 EMaxC= 1.00D-01 BMatC= 6.76D-06 BMatP= 4.25D-05
 IDIUse=3 WtCom= 9.99D-01 WtEn= 1.48D-03
 Coeff-Com: -0.560D-03 0.481D-02 0.262D-01-0.183D-01-0.783D-01 0.116D+00
 Coeff-Com:  0.239D+00-0.366D+00-0.169D+00 0.125D+01
 Coeff-En:   0.000D+00 0.000D+00 0.000D+00 0.000D+00 0.000D+00 0.000D+00
 Coeff-En:   0.000D+00 0.000D+00 0.000D+00 0.100D+01
 Coeff:     -0.559D-03 0.480D-02 0.261D-01-0.182D-01-0.781D-01 0.116D+00
 Coeff:      0.238D+00-0.365D+00-0.168D+00 0.125D+01
 Gap=     0.525 Goal=   None    Shift=    0.000
 Gap=     0.420 Goal=   None    Shift=    0.000
 RMSDP=3.98D-05 MaxDP=1.49D-03 DE=-1.48D-04 OVMax= 3.83D-03

 Cycle  11  Pass 1  IDiag  1:
 E= -345.257555143049     Delta-E=       -0.000011586724 Rises=F Damp=F
 DIIS: error= 9.86D-05 at cycle  11 NSaved=  11.
 NSaved=11 IEnMin=11 EnMin= -345.257555143049     IErMin=11 ErrMin= 9.86D-05
 ErrMax= 9.86D-05 EMaxC= 1.00D-01 BMatC= 2.26D-06 BMatP= 6.76D-06
 IDIUse=1 WtCom= 1.00D+00 WtEn= 0.00D+00
 Coeff-Com: -0.223D-03 0.622D-03 0.754D-02 0.299D-02-0.320D-01-0.220D-01
 Coeff-Com: -0.146D-01 0.209D+00-0.349D+00-0.171D+00 0.137D+01
 Coeff:     -0.223D-03 0.622D-03 0.754D-02 0.299D-02-0.320D-01-0.220D-01
 Coeff:     -0.146D-01 0.209D+00-0.349D+00-0.171D+00 0.137D+01
 Gap=     0.526 Goal=   None    Shift=    0.000
 Gap=     0.420 Goal=   None    Shift=    0.000
 RMSDP=2.61D-05 MaxDP=8.88D-04 DE=-1.16D-05 OVMax= 2.57D-03

 Cycle  12  Pass 1  IDiag  1:
 E= -345.257559515508     Delta-E=       -0.000004372459 Rises=F Damp=F
 DIIS: error= 5.61D-05 at cycle  12 NSaved=  12.
 NSaved=12 IEnMin=12 EnMin= -345.257559515508     IErMin=12 ErrMin= 5.61D-05
 ErrMax= 5.61D-05 EMaxC= 1.00D-01 BMatC= 7.97D-07 BMatP= 2.26D-06
 IDIUse=1 WtCom= 1.00D+00 WtEn= 0.00D+00
 Coeff-Com:  0.239D-03-0.143D-02-0.881D-02-0.566D-02 0.459D-01-0.192D-01
 Coeff-Com: -0.580D-01-0.116D-01 0.221D+00-0.276D+00-0.654D+00 0.177D+01
 Coeff:      0.239D-03-0.143D-02-0.881D-02-0.566D-02 0.459D-01-0.192D-01
 Coeff:     -0.580D-01-0.116D-01 0.221D+00-0.276D+00-0.654D+00 0.177D+01
 Gap=     0.526 Goal=   None    Shift=    0.000
 Gap=     0.420 Goal=   None    Shift=    0.000
 RMSDP=1.80D-05 MaxDP=4.04D-04 DE=-4.37D-06 OVMax= 1.80D-03

 Cycle  13  Pass 1  IDiag  1:
 E= -345.257561178571     Delta-E=       -0.000001663064 Rises=F Damp=F
 DIIS: error= 2.67D-05 at cycle  13 NSaved=  13.
 NSaved=13 IEnMin=13 EnMin= -345.257561178571     IErMin=13 ErrMin= 2.67D-05
 ErrMax= 2.67D-05 EMaxC= 1.00D-01 BMatC= 2.33D-07 BMatP= 7.97D-07
 IDIUse=1 WtCom= 1.00D+00 WtEn= 0.00D+00
 Coeff-Com:  0.105D-04 0.117D-03 0.172D-03-0.257D-02 0.618D-02 0.548D-02
 Coeff-Com:  0.216D-01-0.598D-01 0.612D-01 0.118D+00-0.281D+00-0.350D+00
 Coeff-Com:  0.148D+01
 Coeff:      0.105D-04 0.117D-03 0.172D-03-0.257D-02 0.618D-02 0.548D-02
 Coeff:      0.216D-01-0.598D-01 0.612D-01 0.118D+00-0.281D+00-0.350D+00
 Coeff:      0.148D+01
 Gap=     0.526 Goal=   None    Shift=    0.000
 Gap=     0.420 Goal=   None    Shift=    0.000
 RMSDP=9.06D-06 MaxDP=3.13D-04 DE=-1.66D-06 OVMax= 7.82D-04

 Cycle  14  Pass 1  IDiag  1:
 E= -345.257561608998     Delta-E=       -0.000000430427 Rises=F Damp=F
 DIIS: error= 1.54D-05 at cycle  14 NSaved=  14.
 NSaved=14 IEnMin=14 EnMin= -345.257561608998     IErMin=14 ErrMin= 1.54D-05
 ErrMax= 1.54D-05 EMaxC= 1.00D-01 BMatC= 7.38D-08 BMatP= 2.33D-07
 IDIUse=1 WtCom= 1.00D+00 WtEn= 0.00D+00
 Coeff-Com: -0.580D-04 0.351D-03 0.249D-02 0.161D-03-0.107D-01 0.577D-02
 Coeff-Com:  0.153D-01 0.116D-02-0.664D-01 0.954D-01 0.194D+00-0.605D+00
 Coeff-Com:  0.115D+00 0.125D+01
 Coeff:     -0.580D-04 0.351D-03 0.249D-02 0.161D-03-0.107D-01 0.577D-02
 Coeff:      0.153D-01 0.116D-02-0.664D-01 0.954D-01 0.194D+00-0.605D+00
 Coeff:      0.115D+00 0.125D+01
 Gap=     0.526 Goal=   None    Shift=    0.000
 Gap=     0.420 Goal=   None    Shift=    0.000
 RMSDP=5.14D-06 MaxDP=1.74D-04 DE=-4.30D-07 OVMax= 4.75D-04

 Cycle  15  Pass 1  IDiag  1:
 E= -345.257561743426     Delta-E=       -0.000000134428 Rises=F Damp=F
 DIIS: error= 1.07D-05 at cycle  15 NSaved=  15.
 NSaved=15 IEnMin=15 EnMin= -345.257561743426     IErMin=15 ErrMin= 1.07D-05
 ErrMax= 1.07D-05 EMaxC= 1.00D-01 BMatC= 1.94D-08 BMatP= 7.38D-08
 IDIUse=1 WtCom= 1.00D+00 WtEn= 0.00D+00
 Coeff-Com:  0.831D-05-0.909D-04-0.389D-03 0.588D-04 0.495D-03-0.125D-02
 Coeff-Com: -0.991D-02 0.151D-01-0.348D-02-0.536D-01 0.426D-01 0.226D+00
 Coeff-Com: -0.439D+00-0.368D+00 0.159D+01
 Coeff:      0.831D-05-0.909D-04-0.389D-03 0.588D-04 0.495D-03-0.125D-02
 Coeff:     -0.991D-02 0.151D-01-0.348D-02-0.536D-01 0.426D-01 0.226D+00
 Coeff:     -0.439D+00-0.368D+00 0.159D+01
 Gap=     0.526 Goal=   None    Shift=    0.000
 Gap=     0.420 Goal=   None    Shift=    0.000
 RMSDP=3.08D-06 MaxDP=1.02D-04 DE=-1.34D-07 OVMax= 2.62D-04

 Cycle  16  Pass 1  IDiag  1:
 E= -345.257561780068     Delta-E=       -0.000000036642 Rises=F Damp=F
 DIIS: error= 7.67D-06 at cycle  16 NSaved=  16.
 NSaved=16 IEnMin=16 EnMin= -345.257561780068     IErMin=16 ErrMin= 7.67D-06
 ErrMax= 7.67D-06 EMaxC= 1.00D-01 BMatC= 4.79D-09 BMatP= 1.94D-08
 IDIUse=1 WtCom= 1.00D+00 WtEn= 0.00D+00
 Coeff-Com:  0.620D-05-0.250D-04-0.319D-03-0.484D-04 0.196D-02-0.115D-02
 Coeff-Com:  0.344D-03-0.265D-02 0.122D-01-0.461D-02-0.499D-01 0.760D-01
 Coeff-Com:  0.840D-01-0.202D+00-0.421D+00 0.151D+01
 Coeff:      0.620D-05-0.250D-04-0.319D-03-0.484D-04 0.196D-02-0.115D-02
 Coeff:      0.344D-03-0.265D-02 0.122D-01-0.461D-02-0.499D-01 0.760D-01
 Coeff:      0.840D-01-0.202D+00-0.421D+00 0.151D+01
 Gap=     0.526 Goal=   None    Shift=    0.000
 Gap=     0.420 Goal=   None    Shift=    0.000
 RMSDP=1.24D-06 MaxDP=4.13D-05 DE=-3.66D-08 OVMax= 6.80D-05

 Cycle  17  Pass 1  IDiag  1:
 E= -345.257561787048     Delta-E=       -0.000000006980 Rises=F Damp=F
 DIIS: error= 3.81D-06 at cycle  17 NSaved=  17.
 NSaved=17 IEnMin=17 EnMin= -345.257561787048     IErMin=17 ErrMin= 3.81D-06
 ErrMax= 3.81D-06 EMaxC= 1.00D-01 BMatC= 1.40D-09 BMatP= 4.79D-09
 IDIUse=1 WtCom= 1.00D+00 WtEn= 0.00D+00
 Coeff-Com: -0.368D-05 0.352D-04 0.159D-03-0.123D-04-0.464D-03 0.705D-03
 Coeff-Com:  0.318D-02-0.509D-02 0.115D-03 0.152D-01-0.998D-02-0.631D-01
 Coeff-Com:  0.110D+00 0.104D+00-0.386D+00-0.359D-01 0.127D+01
 Coeff:     -0.368D-05 0.352D-04 0.159D-03-0.123D-04-0.464D-03 0.705D-03
 Coeff:      0.318D-02-0.509D-02 0.115D-03 0.152D-01-0.998D-02-0.631D-01
 Coeff:      0.110D+00 0.104D+00-0.386D+00-0.359D-01 0.127D+01
 Gap=     0.526 Goal=   None    Shift=    0.000
 Gap=     0.420 Goal=   None    Shift=    0.000
 RMSDP=4.96D-07 MaxDP=1.28D-05 DE=-6.98D-09 OVMax= 2.74D-05

 Cycle  18  Pass 1  IDiag  1:
 E= -345.257561789013     Delta-E=       -0.000000001965 Rises=F Damp=F
 DIIS: error= 2.41D-06 at cycle  18 NSaved=  18.
 NSaved=18 IEnMin=18 EnMin= -345.257561789013     IErMin=18 ErrMin= 2.41D-06
 ErrMax= 2.41D-06 EMaxC= 1.00D-01 BMatC= 5.83D-10 BMatP= 1.40D-09
 IDIUse=1 WtCom= 1.00D+00 WtEn= 0.00D+00
 Coeff-Com: -0.179D-05 0.424D-05 0.876D-04 0.741D-04-0.857D-03 0.528D-03
 Coeff-Com: -0.943D-03 0.213D-02-0.473D-02-0.372D-02 0.218D-01-0.304D-02
 Coeff-Com: -0.686D-01 0.200D-01 0.306D+00-0.453D+00-0.738D+00 0.192D+01
 Coeff:     -0.179D-05 0.424D-05 0.876D-04 0.741D-04-0.857D-03 0.528D-03
 Coeff:     -0.943D-03 0.213D-02-0.473D-02-0.372D-02 0.218D-01-0.304D-02
 Coeff:     -0.686D-01 0.200D-01 0.306D+00-0.453D+00-0.738D+00 0.192D+01
 Gap=     0.526 Goal=   None    Shift=    0.000
 Gap=     0.420 Goal=   None    Shift=    0.000
 RMSDP=4.85D-07 MaxDP=1.37D-05 DE=-1.96D-09 OVMax= 2.97D-05

 Cycle  19  Pass 1  IDiag  1:
 E= -345.257561790083     Delta-E=       -0.000000001070 Rises=F Damp=F
 DIIS: error= 1.20D-06 at cycle  19 NSaved=  19.
 NSaved=19 IEnMin=19 EnMin= -345.257561790083     IErMin=19 ErrMin= 1.20D-06
 ErrMax= 1.20D-06 EMaxC= 1.00D-01 BMatC= 1.81D-10 BMatP= 5.83D-10
 IDIUse=1 WtCom= 1.00D+00 WtEn= 0.00D+00
 Coeff-Com: -0.532D-07 0.141D-05-0.124D-04 0.772D-04 0.736D-04-0.403D-03
 Coeff-Com:  0.129D-03 0.120D-02 0.102D-03-0.120D-02-0.222D-02 0.133D-01
 Coeff-Com: -0.882D-03-0.343D-01-0.254D-01 0.250D+00-0.160D+00-0.882D+00
 Coeff-Com:  0.184D+01
 Coeff:     -0.532D-07 0.141D-05-0.124D-04 0.772D-04 0.736D-04-0.403D-03
 Coeff:      0.129D-03 0.120D-02 0.102D-03-0.120D-02-0.222D-02 0.133D-01
 Coeff:     -0.882D-03-0.343D-01-0.254D-01 0.250D+00-0.160D+00-0.882D+00
 Coeff:      0.184D+01
 Gap=     0.526 Goal=   None    Shift=    0.000
 Gap=     0.420 Goal=   None    Shift=    0.000
 RMSDP=3.51D-07 MaxDP=7.82D-06 DE=-1.07D-09 OVMax= 2.21D-05

 Cycle  20  Pass 1  IDiag  1:
 E= -345.257561790436     Delta-E=       -0.000000000353 Rises=F Damp=F
 DIIS: error= 4.99D-07 at cycle  20 NSaved=  20.
 NSaved=20 IEnMin=20 EnMin= -345.257561790436     IErMin=20 ErrMin= 4.99D-07
 ErrMax= 4.99D-07 EMaxC= 1.00D-01 BMatC= 3.55D-11 BMatP= 1.81D-10
 IDIUse=1 WtCom= 1.00D+00 WtEn= 0.00D+00
 Coeff-Com:  0.162D-06-0.560D-07-0.115D-04-0.271D-04 0.142D-03 0.165D-04
 Coeff-Com:  0.335D-03-0.124D-02 0.131D-02 0.142D-02-0.589D-02-0.218D-02
 Coeff-Com:  0.193D-01 0.485D-05-0.695D-01 0.583D-01 0.213D+00-0.323D+00
 Coeff-Com: -0.315D+00 0.142D+01
 Coeff:      0.162D-06-0.560D-07-0.115D-04-0.271D-04 0.142D-03 0.165D-04
 Coeff:      0.335D-03-0.124D-02 0.131D-02 0.142D-02-0.589D-02-0.218D-02
 Coeff:      0.193D-01 0.485D-05-0.695D-01 0.583D-01 0.213D+00-0.323D+00
 Coeff:     -0.315D+00 0.142D+01
 Gap=     0.526 Goal=   None    Shift=    0.000
 Gap=     0.420 Goal=   None    Shift=    0.000
 RMSDP=1.58D-07 MaxDP=5.74D-06 DE=-3.53D-10 OVMax= 1.25D-05

 Cycle  21  Pass 1  IDiag  1:
 E= -345.257561790512     Delta-E=       -0.000000000076 Rises=F Damp=F
 DIIS: error= 2.04D-07 at cycle  21 NSaved=  20.
 NSaved=20 IEnMin=20 EnMin= -345.257561790512     IErMin=20 ErrMin= 2.04D-07
 ErrMax= 2.04D-07 EMaxC= 1.00D-01 BMatC= 4.64D-12 BMatP= 3.55D-11
 IDIUse=1 WtCom= 1.00D+00 WtEn= 0.00D+00
 Coeff-Com:  0.184D-06 0.249D-05-0.641D-05-0.309D-04 0.705D-04-0.319D-05
 Coeff-Com: -0.114D-03-0.106D-03 0.239D-03 0.554D-03-0.246D-02 0.530D-03
 Coeff-Com:  0.400D-02 0.718D-02-0.424D-01 0.224D-01 0.155D+00-0.261D+00
 Coeff-Com: -0.196D+00 0.131D+01
 Coeff:      0.184D-06 0.249D-05-0.641D-05-0.309D-04 0.705D-04-0.319D-05
 Coeff:     -0.114D-03-0.106D-03 0.239D-03 0.554D-03-0.246D-02 0.530D-03
 Coeff:      0.400D-02 0.718D-02-0.424D-01 0.224D-01 0.155D+00-0.261D+00
 Coeff:     -0.196D+00 0.131D+01
 Gap=     0.526 Goal=   None    Shift=    0.000
 Gap=     0.420 Goal=   None    Shift=    0.000
 RMSDP=3.13D-08 MaxDP=9.08D-07 DE=-7.59D-11 OVMax= 1.53D-06

 Cycle  22  Pass 1  IDiag  1:
 E= -345.257561790518     Delta-E=       -0.000000000006 Rises=F Damp=F
 DIIS: error= 6.73D-08 at cycle  22 NSaved=  20.
 NSaved=20 IEnMin=20 EnMin= -345.257561790518     IErMin=20 ErrMin= 6.73D-08
 ErrMax= 6.73D-08 EMaxC= 1.00D-01 BMatC= 9.88D-13 BMatP= 4.64D-12
 IDIUse=1 WtCom= 1.00D+00 WtEn= 0.00D+00
 Coeff-Com:  0.871D-06 0.721D-05-0.182D-04-0.151D-04-0.515D-04 0.231D-03
 Coeff-Com: -0.210D-03-0.261D-03 0.931D-03 0.691D-03-0.312D-02-0.672D-03
 Coeff-Com:  0.112D-01-0.644D-02-0.342D-01 0.369D-01 0.765D-01-0.209D+00
 Coeff-Com: -0.142D+00 0.127D+01
 Coeff:      0.871D-06 0.721D-05-0.182D-04-0.151D-04-0.515D-04 0.231D-03
 Coeff:     -0.210D-03-0.261D-03 0.931D-03 0.691D-03-0.312D-02-0.672D-03
 Coeff:      0.112D-01-0.644D-02-0.342D-01 0.369D-01 0.765D-01-0.209D+00
 Coeff:     -0.142D+00 0.127D+01
 Gap=     0.526 Goal=   None    Shift=    0.000
 Gap=     0.420 Goal=   None    Shift=    0.000
 RMSDP=1.76D-08 MaxDP=4.95D-07 DE=-5.68D-12 OVMax= 1.40D-06

 Cycle  23  Pass 1  IDiag  1:
 E= -345.257561790520     Delta-E=       -0.000000000002 Rises=F Damp=F
 DIIS: error= 3.39D-08 at cycle  23 NSaved=  20.
 NSaved=20 IEnMin=20 EnMin= -345.257561790520     IErMin=20 ErrMin= 3.39D-08
 ErrMax= 3.39D-08 EMaxC= 1.00D-01 BMatC= 2.45D-13 BMatP= 9.88D-13
 IDIUse=1 WtCom= 1.00D+00 WtEn= 0.00D+00
 Coeff-Com:  0.368D-06 0.390D-05-0.108D-04 0.678D-05-0.740D-05 0.306D-04
 Coeff-Com: -0.496D-04-0.158D-03 0.499D-03-0.207D-03-0.666D-03-0.150D-02
 Coeff-Com:  0.800D-02-0.369D-02-0.320D-01 0.444D-01 0.673D-01-0.268D+00
 Coeff-Com: -0.186D+00 0.137D+01
 Coeff:      0.368D-06 0.390D-05-0.108D-04 0.678D-05-0.740D-05 0.306D-04
 Coeff:     -0.496D-04-0.158D-03 0.499D-03-0.207D-03-0.666D-03-0.150D-02
 Coeff:      0.800D-02-0.369D-02-0.320D-01 0.444D-01 0.673D-01-0.268D+00
 Coeff:     -0.186D+00 0.137D+01
 Gap=     0.526 Goal=   None    Shift=    0.000
 Gap=     0.420 Goal=   None    Shift=    0.000
 RMSDP=7.91D-09 MaxDP=2.00D-07 DE=-1.82D-12 OVMax= 4.62D-07

 SCF Done:  E(UHF) =  -345.257561791     A.U. after   23 cycles
             Convg  =    0.7913D-08             -V/T =  2.0014
 <Sx>= 0.0000 <Sy>= 0.0000 <Sz>= 0.5000 <S**2>= 1.0023 S= 0.6190
 <L.S>= 0.000000000000E+00
 KE= 3.447812341093D+02 PE=-1.400177768326D+03 EE= 4.150330921457D+02
 Annihilation of the first spin contaminant:
 S**2 before annihilation     1.0023,   after     0.7766
 Leave Link  502 at Thu Apr 26 16:17:58 2018, MaxMem=  671088640 cpu:     499.2
 (Enter /shared/apps/gaussian/G09_LINUX_LINDA/g09/l801.exe)
 Range of M.O.s used for correlation:     1   127
 NBasis=   127 NAE=    29 NBE=    28 NFC=     0 NFV=     0
 NROrb=    127 NOA=    29 NOB=    28 NVA=    98 NVB=    99
 Leave Link  801 at Thu Apr 26 16:17:58 2018, MaxMem=  671088640 cpu:       0.4
 (Enter /shared/apps/gaussian/G09_LINUX_LINDA/g09/l1101.exe)
 Using compressed storage, NAtomX=    18.
 Will process  19 centers per pass.
 Leave Link 1101 at Thu Apr 26 16:18:00 2018, MaxMem=  671088640 cpu:      12.3
 (Enter /shared/apps/gaussian/G09_LINUX_LINDA/g09/l1102.exe)
 Symmetrizing basis deriv contribution to polar:
 IMax=3 JMax=2 DiffMx= 0.00D+00
 Leave Link 1102 at Thu Apr 26 16:18:00 2018, MaxMem=  671088640 cpu:       1.2
 (Enter /shared/apps/gaussian/G09_LINUX_LINDA/g09/l1110.exe)
 Forming Gx(P) for the SCF density, NAtomX=    18.
 Integral derivatives from FoFDir/FoFCou, PRISM(SPDF).
 Do as many integral derivatives as possible in FoFDir.
 G2DrvN: MDV=     671088392.
 G2DrvN: will do    19 centers at a time, making    1 passes doing MaxLOS=2.
 Calling FoFCou, ICntrl=  3107 FMM=F I1Cent=   0 AccDes= 0.00D+00.
 FoFCou: FMM=F IPFlag=           0 FMFlag=      100000 FMFlg1=           0
         NFxFlg=           0 DoJE=F BraDBF=F KetDBF=F FulRan=T
         Omega=  0.000000  0.000000  1.000000  0.000000  0.000000 ICntrl=    3107 IOpCl=  1
         NMat0=    1 NMatS0=    1 NMatT0=    0 NMatD0=    1 NMtDS0=    0 NMtDT0=    0
         I1Cent=           0 NGrid=           0.
 Symmetry not used in FoFCou.
 FoFDir/FoFCou used for L=0 through L=2.
 End of G2Drv Frequency-dependent properties file   721 does not exist.
 End of G2Drv Frequency-dependent properties file   722 does not exist.
 Leave Link 1110 at Thu Apr 26 16:18:03 2018, MaxMem=  671088640 cpu:      28.6
 (Enter /shared/apps/gaussian/G09_LINUX_LINDA/g09/l1002.exe)
 Minotr:  UHF open shell wavefunction.
          IDoAtm=111111111111111111
          Direct CPHF calculation.
          Differentiating once with respect to nuclear coordinates.
          Requested convergence is 1.0D-06 RMS, and 1.0D-05 maximum.
          Secondary convergence is 1.0D-12 RMS, and 1.0D-12 maximum.
          NewPWx=T KeepS1=F KeepF1=F KeepIn=T MapXYZ=F SortEE=F KeepMc=T.
          MDV=     671088456 using IRadAn=       2.
          Keep R1 and R2 ints in memory in canonical form, NReq=66894031.
 Symmetry not used in FoFDir.
 MinBra= 0 MaxBra= 2 Meth= 1.
 IRaf=       0 NMat=   1 IRICut=       1 DoRegI=T DoRafI=F ISym2E= 0 JSym2E=0.
          Solving linear equations simultaneously, MaxMat=       0.
          There are    57 degrees of freedom in the 1st order CPHF.  IDoFFX=5.
     51 vectors produced by pass  0 Test12= 9.85D-11 1.75D-07 XBig12= 1.20D-01 1.54D-01.
 AX will form    51 AO Fock derivatives at one time.
     51 vectors produced by pass  1 Test12= 9.85D-11 1.75D-07 XBig12= 9.54D-03 4.86D-02.
     51 vectors produced by pass  2 Test12= 9.85D-11 1.75D-07 XBig12= 6.03D-04 4.58D-03.
     51 vectors produced by pass  3 Test12= 9.85D-11 1.75D-07 XBig12= 1.98D-05 1.06D-03.
     51 vectors produced by pass  4 Test12= 9.85D-11 1.75D-07 XBig12= 4.97D-07 1.35D-04.
     30 vectors produced by pass  5 Test12= 9.85D-11 1.75D-07 XBig12= 6.45D-09 9.14D-06.
      8 vectors produced by pass  6 Test12= 9.85D-11 1.75D-07 XBig12= 9.27D-11 1.09D-06.
 Inverted reduced A of dimension   293 with in-core refinement.
 End of Minotr Frequency-dependent properties file   721 does not exist.
 End of Minotr Frequency-dependent properties file   722 does not exist.
 Leave Link 1002 at Thu Apr 26 16:18:24 2018, MaxMem=  671088640 cpu:     213.1
 (Enter /shared/apps/gaussian/G09_LINUX_LINDA/g09/l601.exe)
 Copying SCF densities to generalized density rwf, IOpCl= 1 IROHF=0.

 **********************************************************************

            Population analysis using the SCF density.

 **********************************************************************

 Orbital symmetries:
 Alpha Orbitals:
       Occupied  (A) (A) (A) (A) (A) (A) (A) (A) (A) (A) (A) (A)
                 (A) (A) (A) (A) (A) (A) (A) (A) (A) (A) (A) (A)
                 (A) (A) (A) (A) (A)
       Virtual   (A) (A) (A) (A) (A) (A) (A) (A) (A) (A) (A) (A)
                 (A) (A) (A) (A) (A) (A) (A) (A) (A) (A) (A) (A)
                 (A) (A) (A) (A) (A) (A) (A) (A) (A) (A) (A) (A)
                 (A) (A) (A) (A) (A) (A) (A) (A) (A) (A) (A) (A)
                 (A) (A) (A) (A) (A) (A) (A) (A) (A) (A) (A) (A)
                 (A) (A) (A) (A) (A) (A) (A) (A) (A) (A) (A) (A)
                 (A) (A) (A) (A) (A) (A) (A) (A) (A) (A) (A) (A)
                 (A) (A) (A) (A) (A) (A) (A) (A) (A) (A) (A) (A)
                 (A) (A)
 Beta  Orbitals:
       Occupied  (A) (A) (A) (A) (A) (A) (A) (A) (A) (A) (A) (A)
                 (A) (A) (A) (A) (A) (A) (A) (A) (A) (A) (A) (A)
                 (A) (A) (A) (A)
       Virtual   (A) (A) (A) (A) (A) (A) (A) (A) (A) (A) (A) (A)
                 (A) (A) (A) (A) (A) (A) (A) (A) (A) (A) (A) (A)
                 (A) (A) (A) (A) (A) (A) (A) (A) (A) (A) (A) (A)
                 (A) (A) (A) (A) (A) (A) (A) (A) (A) (A) (A) (A)
                 (A) (A) (A) (A) (A) (A) (A) (A) (A) (A) (A) (A)
                 (A) (A) (A) (A) (A) (A) (A) (A) (A) (A) (A) (A)
                 (A) (A) (A) (A) (A) (A) (A) (A) (A) (A) (A) (A)
                 (A) (A) (A) (A) (A) (A) (A) (A) (A) (A) (A) (A)
                 (A) (A) (A)
 The electronic state is 2-A.
 Alpha  occ. eigenvalues --  -20.64518 -20.62598 -11.24594 -11.24337 -11.22166
 Alpha  occ. eigenvalues --  -11.21975 -11.21858  -1.50825  -1.18231  -1.10977
 Alpha  occ. eigenvalues --   -1.01195  -0.94547  -0.88027  -0.73933  -0.72276
 Alpha  occ. eigenvalues --   -0.70430  -0.64403  -0.62197  -0.61087  -0.60545
 Alpha  occ. eigenvalues --   -0.55423  -0.54381  -0.53209  -0.51662  -0.51131
 Alpha  occ. eigenvalues --   -0.48497  -0.48106  -0.43780  -0.33258
 Alpha virt. eigenvalues --    0.19345   0.22518   0.23445   0.26783   0.27179
 Alpha virt. eigenvalues --    0.29802   0.31746   0.32262   0.33469   0.33970
 Alpha virt. eigenvalues --    0.36025   0.38518   0.39461   0.42795   0.45048
 Alpha virt. eigenvalues --    0.50568   0.59509   0.68192   0.71078   0.74167
 Alpha virt. eigenvalues --    0.76143   0.78098   0.79564   0.83412   0.85561
 Alpha virt. eigenvalues --    0.93547   0.95074   0.96458   0.98333   0.99838
 Alpha virt. eigenvalues --    1.03236   1.04442   1.07223   1.07929   1.09771
 Alpha virt. eigenvalues --    1.14143   1.14782   1.16750   1.17538   1.18068
 Alpha virt. eigenvalues --    1.20577   1.22003   1.22123   1.24840   1.26959
 Alpha virt. eigenvalues --    1.27388   1.29688   1.31074   1.37070   1.40703
 Alpha virt. eigenvalues --    1.44303   1.50089   1.57402   1.61412   1.67436
 Alpha virt. eigenvalues --    1.69149   1.72908   1.78477   1.80592   1.81067
 Alpha virt. eigenvalues --    1.89102   1.92343   2.04723   2.10659   2.14408
 Alpha virt. eigenvalues --    2.15534   2.16985   2.18624   2.20297   2.32133
 Alpha virt. eigenvalues --    2.34799   2.36452   2.42839   2.47427   2.48028
 Alpha virt. eigenvalues --    2.54834   2.57287   2.63206   2.68974   2.75236
 Alpha virt. eigenvalues --    2.75567   2.76560   2.76960   2.82516   2.85212
 Alpha virt. eigenvalues --    2.86961   2.88595   3.01739   3.24405   3.29455
 Alpha virt. eigenvalues --    3.40406   3.94883   4.18302   4.53585   4.68845
 Alpha virt. eigenvalues --    4.71830   4.74662   4.96130
  Beta  occ. eigenvalues --  -20.62535 -20.61634 -11.23447 -11.23141 -11.22758
  Beta  occ. eigenvalues --  -11.22159 -11.22036  -1.47112  -1.12591  -1.09443
  Beta  occ. eigenvalues --   -0.99447  -0.94596  -0.86105  -0.71579  -0.71179
  Beta  occ. eigenvalues --   -0.63962  -0.63155  -0.61029  -0.58824  -0.58283
  Beta  occ. eigenvalues --   -0.54817  -0.53841  -0.53003  -0.50963  -0.48135
  Beta  occ. eigenvalues --   -0.46685  -0.45767  -0.34644
  Beta virt. eigenvalues --    0.07383   0.20899   0.22706   0.23489   0.26938
  Beta virt. eigenvalues --    0.27342   0.29966   0.32210   0.33438   0.34176
  Beta virt. eigenvalues --    0.35855   0.36288   0.39045   0.40469   0.43615
  Beta virt. eigenvalues --    0.48320   0.50866   0.59723   0.68427   0.71707
  Beta virt. eigenvalues --    0.73784   0.76956   0.79323   0.80081   0.85254
  Beta virt. eigenvalues --    0.86989   0.92765   0.96734   0.97788   1.00169
  Beta virt. eigenvalues --    1.00742   1.04492   1.04894   1.07579   1.08839
  Beta virt. eigenvalues --    1.10405   1.14090   1.14740   1.16995   1.17980
  Beta virt. eigenvalues --    1.18786   1.21269   1.22243   1.23092   1.24971
  Beta virt. eigenvalues --    1.27660   1.28518   1.30783   1.32093   1.38375
  Beta virt. eigenvalues --    1.40608   1.45569   1.52039   1.57904   1.62609
  Beta virt. eigenvalues --    1.69487   1.71232   1.74493   1.78776   1.81286
  Beta virt. eigenvalues --    1.81536   1.91207   1.94908   2.06720   2.11547
  Beta virt. eigenvalues --    2.15359   2.16528   2.18408   2.19705   2.21847
  Beta virt. eigenvalues --    2.32880   2.36287   2.38004   2.43428   2.48063
  Beta virt. eigenvalues --    2.49096   2.55572   2.57345   2.63110   2.69102
  Beta virt. eigenvalues --    2.75750   2.76467   2.77490   2.79638   2.82926
  Beta virt. eigenvalues --    2.86150   2.87644   2.90286   3.02579   3.24648
  Beta virt. eigenvalues --    3.30491   3.40593   3.95466   4.20001   4.54147
  Beta virt. eigenvalues --    4.69096   4.71561   4.75635   4.96679
          Condensed to atoms (all electrons):
              1          2          3          4          5          6
     1  O    8.305123   0.057435  -0.001296   0.000174  -0.058522   0.000000
     2  O    0.057435   8.155148   0.000598  -0.000005   0.002648   0.000000
     3  C   -0.001296   0.000598   5.025475   0.611189   0.349602  -0.043513
     4  C    0.000174  -0.000005   0.611189   4.951325  -0.048087   0.347620
     5  C   -0.058522   0.002648   0.349602  -0.048087   5.307007   0.003370
     6  C    0.000000   0.000000  -0.043513   0.347620   0.003370   5.102012
     7  C   -0.000011   0.000002  -0.043713   0.345831  -0.007684  -0.065884
     8  H   -0.028386   0.256691  -0.000016   0.000001  -0.000417   0.000000
     9  H    0.000038  -0.000001   0.394016  -0.038911  -0.039638  -0.005367
    10  H    0.040466  -0.029905  -0.030537  -0.003184   0.236252  -0.000042
    11  H   -0.000626   0.000933  -0.033315   0.002299   0.381688  -0.000076
    12  H   -0.001219   0.001948  -0.035594  -0.000143   0.385731   0.000034
    13  H    0.000000   0.000000   0.000198  -0.041592  -0.000078   0.388443
    14  H    0.000000   0.000000  -0.001030  -0.040801   0.000148   0.394826
    15  H    0.000000   0.000000  -0.000373  -0.042367  -0.000097   0.389367
    16  H    0.000134  -0.000009  -0.003175  -0.034941  -0.000629   0.003579
    17  H   -0.000005   0.000000   0.000564  -0.041117   0.000242  -0.002116
    18  H    0.000000   0.000000   0.000160  -0.041719   0.000179  -0.001687
              7          8          9         10         11         12
     1  O   -0.000011  -0.028386   0.000038   0.040466  -0.000626  -0.001219
     2  O    0.000002   0.256691  -0.000001  -0.029905   0.000933   0.001948
     3  C   -0.043713  -0.000016   0.394016  -0.030537  -0.033315  -0.035594
     4  C    0.345831   0.000001  -0.038911  -0.003184   0.002299  -0.000143
     5  C   -0.007684  -0.000417  -0.039638   0.236252   0.381688   0.385731
     6  C   -0.065884   0.000000  -0.005367  -0.000042  -0.000076   0.000034
     7  C    5.107627   0.000000   0.003533   0.000153   0.000141  -0.000179
     8  H    0.000000   0.315848  -0.000001   0.000048   0.000290  -0.000092
     9  H    0.003533  -0.000001   0.502401   0.000410  -0.003107   0.002578
    10  H    0.000153   0.000048   0.000410   0.504165  -0.023974  -0.023974
    11  H    0.000141   0.000290  -0.003107  -0.023974   0.507055  -0.022043
    12  H   -0.000179  -0.000092   0.002578  -0.023974  -0.022043   0.481401
    13  H   -0.001384   0.000000   0.000147   0.000015  -0.000001  -0.000005
    14  H    0.003652   0.000000   0.003069  -0.000003  -0.000008   0.000005
    15  H   -0.000915   0.000000   0.000113  -0.000003   0.000005   0.000007
    16  H    0.395465   0.000001   0.000038  -0.000155   0.000071   0.000517
    17  H    0.391513   0.000000  -0.000107   0.000092  -0.000008  -0.000117
    18  H    0.388418   0.000000  -0.000112  -0.000030   0.000008   0.000085
             13         14         15         16         17         18
     1  O    0.000000   0.000000   0.000000   0.000134  -0.000005   0.000000
     2  O    0.000000   0.000000   0.000000  -0.000009   0.000000   0.000000
     3  C    0.000198  -0.001030  -0.000373  -0.003175   0.000564   0.000160
     4  C   -0.041592  -0.040801  -0.042367  -0.034941  -0.041117  -0.041719
     5  C   -0.000078   0.000148  -0.000097  -0.000629   0.000242   0.000179
     6  C    0.388443   0.394826   0.389367   0.003579  -0.002116  -0.001687
     7  C   -0.001384   0.003652  -0.000915   0.395465   0.391513   0.388418
     8  H    0.000000   0.000000   0.000000   0.000001   0.000000   0.000000
     9  H    0.000147   0.003069   0.000113   0.000038  -0.000107  -0.000112
    10  H    0.000015  -0.000003  -0.000003  -0.000155   0.000092  -0.000030
    11  H   -0.000001  -0.000008   0.000005   0.000071  -0.000008   0.000008
    12  H   -0.000005   0.000005   0.000007   0.000517  -0.000117   0.000085
    13  H    0.539561  -0.024623  -0.034518  -0.000063   0.002652  -0.000362
    14  H   -0.024623   0.516719  -0.024923  -0.000091  -0.000030  -0.000060
    15  H   -0.034518  -0.024923   0.542773  -0.000040  -0.000393   0.002562
    16  H   -0.000063  -0.000091  -0.000040   0.505457  -0.024975  -0.024988
    17  H    0.002652  -0.000030  -0.000393  -0.024975   0.530691  -0.033086
    18  H   -0.000362  -0.000060   0.002562  -0.024988  -0.033086   0.540623
 Mulliken atomic charges:
              1
     1  O   -0.313305
     2  O   -0.445481
     3  C   -0.189240
     4  C    0.074428
     5  C   -0.511715
     6  C   -0.510566
     7  C   -0.516565
     8  H    0.456033
     9  H    0.180901
    10  H    0.330204
    11  H    0.190669
    12  H    0.211061
    13  H    0.171611
    14  H    0.173151
    15  H    0.168803
    16  H    0.183804
    17  H    0.176200
    18  H    0.170008
 Sum of Mulliken atomic charges =   0.00000
 Mulliken charges with hydrogens summed into heavy atoms:
              1
     1  O    0.016899
     2  O    0.010552
     3  C   -0.008339
     4  C    0.074428
     5  C   -0.109985
     6  C    0.002998
     7  C    0.013447
 Sum of Mulliken charges with hydrogens summed into heavy atoms =   0.00000
          Atomic-Atomic Spin Densities.
              1          2          3          4          5          6
     1  O    0.788069  -0.050272   0.003931   0.000271  -0.069969   0.000001
     2  O   -0.050272   0.015437  -0.000225  -0.000004   0.007149   0.000000
     3  C    0.003931  -0.000225  -0.726286   0.034843  -0.036888  -0.000602
     4  C    0.000271  -0.000004   0.034843   0.831847  -0.013158  -0.023792
     5  C   -0.069969   0.007149  -0.036888  -0.013158   0.784102   0.000016
     6  C    0.000001   0.000000  -0.000602  -0.023792   0.000016  -0.092311
     7  C   -0.000016   0.000001  -0.000188  -0.027760   0.000376   0.002243
     8  H    0.000074  -0.000304   0.000000   0.000000  -0.000023   0.000000
     9  H   -0.000034   0.000001   0.007168  -0.002086  -0.001531   0.000184
    10  H   -0.078952   0.019638   0.015721   0.000197   0.067710   0.000017
    11  H    0.003334  -0.000916   0.004519  -0.000124  -0.021975   0.000008
    12  H    0.003445  -0.001342   0.004144  -0.000570  -0.021471   0.000004
    13  H    0.000000   0.000000   0.000182  -0.013309   0.000026   0.006785
    14  H    0.000000   0.000000   0.000970  -0.002226  -0.000003   0.003536
    15  H    0.000000   0.000000  -0.000170  -0.012664   0.000022   0.007805
    16  H    0.000000   0.000001   0.000871  -0.002130  -0.000482  -0.000076
    17  H   -0.000008   0.000000   0.000023  -0.011703   0.000152   0.000362
    18  H    0.000001   0.000000  -0.000030  -0.012389   0.000102   0.000594
              7          8          9         10         11         12
     1  O   -0.000016   0.000074  -0.000034  -0.078952   0.003334   0.003445
     2  O    0.000001  -0.000304   0.000001   0.019638  -0.000916  -0.001342
     3  C   -0.000188   0.000000   0.007168   0.015721   0.004519   0.004144
     4  C   -0.027760   0.000000  -0.002086   0.000197  -0.000124  -0.000570
     5  C    0.000376  -0.000023  -0.001531   0.067710  -0.021975  -0.021471
     6  C    0.002243   0.000000   0.000184   0.000017   0.000008   0.000004
     7  C   -0.086059   0.000000   0.000041  -0.000031  -0.000022   0.000313
     8  H    0.000000  -0.001225   0.000000   0.000181  -0.000032  -0.000004
     9  H    0.000041   0.000000   0.042159  -0.000268  -0.000189  -0.000043
    10  H   -0.000031   0.000181  -0.000268  -0.257806   0.009810   0.011310
    11  H   -0.000022  -0.000032  -0.000189   0.009810  -0.039658   0.002105
    12  H    0.000313  -0.000004  -0.000043   0.011310   0.002105  -0.041805
    13  H    0.000618   0.000000   0.000051  -0.000005  -0.000001  -0.000001
    14  H   -0.000063   0.000000  -0.000073   0.000001   0.000001   0.000000
    15  H    0.000450   0.000000  -0.000038   0.000001   0.000001   0.000001
    16  H    0.003448   0.000000   0.000005  -0.000032   0.000013   0.000156
    17  H    0.007803   0.000000   0.000004  -0.000024  -0.000002  -0.000028
    18  H    0.007061   0.000000  -0.000011   0.000007   0.000004   0.000025
             13         14         15         16         17         18
     1  O    0.000000   0.000000   0.000000   0.000000  -0.000008   0.000001
     2  O    0.000000   0.000000   0.000000   0.000001   0.000000   0.000000
     3  C    0.000182   0.000970  -0.000170   0.000871   0.000023  -0.000030
     4  C   -0.013309  -0.002226  -0.012664  -0.002130  -0.011703  -0.012389
     5  C    0.000026  -0.000003   0.000022  -0.000482   0.000152   0.000102
     6  C    0.006785   0.003536   0.007805  -0.000076   0.000362   0.000594
     7  C    0.000618  -0.000063   0.000450   0.003448   0.007803   0.007061
     8  H    0.000000   0.000000   0.000000   0.000000   0.000000   0.000000
     9  H    0.000051  -0.000073  -0.000038   0.000005   0.000004  -0.000011
    10  H   -0.000005   0.000001   0.000001  -0.000032  -0.000024   0.000007
    11  H   -0.000001   0.000001   0.000001   0.000013  -0.000002   0.000004
    12  H   -0.000001   0.000000   0.000001   0.000156  -0.000028   0.000025
    13  H    0.040323  -0.000787  -0.008171  -0.000002   0.001659  -0.000621
    14  H   -0.000787   0.003322  -0.000621   0.000000  -0.000003  -0.000001
    15  H   -0.008171  -0.000621   0.036664   0.000001  -0.000647   0.001588
    16  H   -0.000002   0.000000   0.000001   0.003489  -0.000611  -0.000743
    17  H    0.001659  -0.000003  -0.000647  -0.000611   0.032511  -0.007002
    18  H   -0.000621  -0.000001   0.001588  -0.000743  -0.007002   0.035997
 Mulliken atomic spin densities:
              1
     1  O    0.599874
     2  O   -0.010837
     3  C   -0.692016
     4  C    0.745242
     5  C    0.694157
     6  C   -0.095224
     7  C   -0.091784
     8  H   -0.001334
     9  H    0.045339
    10  H   -0.212525
    11  H   -0.043125
    12  H   -0.043761
    13  H    0.026748
    14  H    0.004052
    15  H    0.024220
    16  H    0.003908
    17  H    0.022486
    18  H    0.024582
 Sum of Mulliken atomic spin densities =   1.00000
 APT atomic charges:
              1
     1  O   -0.131797
     2  O   -1.067259
     3  C   -0.591734
     4  C    0.287797
     5  C   -1.064610
     6  C   -1.526689
     7  C   -1.268360
     8  H    0.857962
     9  H    0.488142
    10  H    0.417848
    11  H    0.523301
    12  H    0.377279
    13  H    0.443425
    14  H    0.431712
    15  H    0.572384
    16  H    0.239059
    17  H    0.450257
    18  H    0.561283
 Sum of APT charges=   0.00000
 APT Atomic charges with hydrogens summed into heavy atoms:
              1
     1  O    0.286051
     2  O   -0.209297
     3  C   -0.103592
     4  C    0.287797
     5  C   -0.164030
     6  C   -0.079168
     7  C   -0.017761
     8  H    0.000000
     9  H    0.000000
    10  H    0.000000
    11  H    0.000000
    12  H    0.000000
    13  H    0.000000
    14  H    0.000000
    15  H    0.000000
    16  H    0.000000
    17  H    0.000000
    18  H    0.000000
 Sum of APT charges=   0.00000
 Electronic spatial extent (au):  <R**2>=           1352.3833
 Charge=              0.0000 electrons
 Dipole moment (field-independent basis, Debye):
    X=              0.9061    Y=             -1.5550    Z=             -1.1994  Tot=              2.1628
 Quadrupole moment (field-independent basis, Debye-Ang):
   XX=            -39.5688   YY=            -43.1170   ZZ=            -46.2796
   XY=              6.5617   XZ=              3.8340   YZ=             -0.0037
 Traceless Quadrupole moment (field-independent basis, Debye-Ang):
   XX=              3.4197   YY=             -0.1285   ZZ=             -3.2912
   XY=              6.5617   XZ=              3.8340   YZ=             -0.0037
 Octapole moment (field-independent basis, Debye-Ang**2):
  XXX=            -52.3307  YYY=             -2.7287  ZZZ=              3.2176  XYY=             -7.3647
  XXY=            -20.5775  XXZ=             -5.3566  XZZ=             -6.7305  YZZ=              2.0589
  YYZ=              0.6209  XYZ=             -1.7255
 Hexadecapole moment (field-independent basis, Debye-Ang**3):
 XXXX=          -1126.3064 YYYY=           -239.5707 ZZZZ=           -142.9271 XXXY=             84.7469
 XXXZ=             10.1170 YYYX=             -3.3819 YYYZ=              0.7534 ZZZX=             -1.3400
 ZZZY=             -0.0121 XXYY=           -258.9097 XXZZ=           -247.7609 YYZZ=            -63.6085
 XXYZ=              0.7924 YYXZ=              1.4524 ZZXY=              2.6087
 N-N= 2.951058802802D+02 E-N=-2.091057492522D+03  KE= 5.157724237759D+02
  Exact polarizability:   0.000   0.000   0.000   0.000   0.000   0.000
 Approx polarizability:  67.377   1.686  51.121   0.922   1.436  46.089
                          Isotropic Fermi Contact Couplings
        Atom                 a.u.       MegaHertz       Gauss      10(-4) cm-1
     1  O(17)              0.12301     -74.56704     -26.60737     -24.87289
     2  O(17)              0.02183     -13.23063      -4.72102      -4.41326
     3  C(13)             -0.12459    -140.06456     -49.97852     -46.72051
     4  C(13)              0.13230     148.72631      53.06924      49.60976
     5  C(13)              0.16797     188.82581      67.37774      62.98551
     6  C(13)             -0.03163     -35.55885     -12.68828     -11.86116
     7  C(13)             -0.03023     -33.98500     -12.12669     -11.33617
     8  H(1)              -0.00073      -3.27118      -1.16724      -1.09115
     9  H(1)               0.01397      62.45369      22.28503      20.83231
    10  H(1)              -0.08534    -381.44099    -136.10762    -127.23502
    11  H(1)              -0.01427     -63.77026     -22.75481     -21.27147
    12  H(1)              -0.01488     -66.50884     -23.73201     -22.18496
    13  H(1)               0.01182      52.83519      18.85291      17.62392
    14  H(1)               0.00138       6.15706       2.19699       2.05377
    15  H(1)               0.01081      48.33212      17.24610      16.12186
    16  H(1)               0.00133       5.94865       2.12262       1.98425
    17  H(1)               0.01011      45.17172      16.11839      15.06766
    18  H(1)               0.01100      49.16945      17.54488      16.40116
 --------------------------------------------------------
       Center         ----  Spin Dipole Couplings  ----
                      3XX-RR        3YY-RR        3ZZ-RR
 --------------------------------------------------------
     1   Atom        0.213968     -0.963826      0.749858
     2   Atom        0.092906     -0.023560     -0.069346
     3   Atom        0.169522      0.214793     -0.384315
     4   Atom       -0.182413     -0.292380      0.474793
     5   Atom       -0.012429     -0.273863      0.286292
     6   Atom       -0.006497      0.005104      0.001393
     7   Atom        0.006242     -0.008494      0.002252
     8   Atom        0.014008     -0.008930     -0.005078
     9   Atom        0.028868     -0.024463     -0.004405
    10   Atom        0.066299     -0.104849      0.038550
    11   Atom       -0.014477      0.018431     -0.003954
    12   Atom       -0.025582      0.021542      0.004040
    13   Atom        0.005388     -0.004163     -0.001225
    14   Atom        0.000277      0.000615     -0.000892
    15   Atom        0.007710     -0.003419     -0.004291
    16   Atom       -0.001254      0.004346     -0.003092
    17   Atom       -0.001619      0.007700     -0.006081
    18   Atom       -0.003110      0.006564     -0.003454
 --------------------------------------------------------
                        XY            XZ            YZ
 --------------------------------------------------------
     1   Atom       -0.653333     -1.622220      0.696634
     2   Atom       -0.054978     -0.276333      0.151587
     3   Atom        0.042427      0.240529     -0.082550
     4   Atom       -0.048722     -0.296671      0.097566
     5   Atom       -0.079286     -0.412676      0.122967
     6   Atom       -0.001366     -0.004174     -0.000940
     7   Atom       -0.001571      0.000600      0.000372
     8   Atom        0.006300      0.010200      0.007142
     9   Atom        0.015198      0.008883      0.011138
    10   Atom       -0.068390     -0.179479      0.063127
    11   Atom        0.028112     -0.003645      0.030852
    12   Atom       -0.009681     -0.011106     -0.028970
    13   Atom       -0.001579      0.005509     -0.002445
    14   Atom       -0.005896      0.000861     -0.002451
    15   Atom       -0.003052      0.002840      0.000516
    16   Atom       -0.000395     -0.000834     -0.002453
    17   Atom        0.001041     -0.000262      0.000977
    18   Atom        0.002138      0.000536     -0.003419
 --------------------------------------------------------


 ---------------------------------------------------------------------------------
              Anisotropic Spin Dipole Couplings in Principal Axis System
 ---------------------------------------------------------------------------------

       Atom             a.u.   MegaHertz   Gauss  10(-4) cm-1        Axes

              Baa    -1.2567    90.935    32.448    30.333  0.4904  0.8662  0.0958
     1 O(17)  Bbb    -1.1402    82.503    29.439    27.520  0.6072 -0.4185  0.6754
              Bcc     2.3969  -173.438   -61.887   -57.853 -0.6251  0.2731  0.7312
 
              Baa    -0.3070    22.217     7.928     7.411  0.5059 -0.3284  0.7976
     2 O(17)  Bbb    -0.0431     3.117     1.112     1.040  0.4757  0.8776  0.0595
              Bcc     0.3501   -25.335    -9.040    -8.451  0.7195 -0.3493 -0.6002
 
              Baa    -0.4863   -65.259   -23.286   -21.768 -0.3488  0.1304  0.9281
     3 C(13)  Bbb     0.2237    30.015    10.710    10.012 -0.2261  0.9493 -0.2184
              Bcc     0.2626    35.244    12.576    11.756  0.9095  0.2860  0.3016
 
              Baa    -0.3124   -41.915   -14.956   -13.981  0.5475  0.8304  0.1034
     4 C(13)  Bbb    -0.2897   -38.878   -13.873   -12.968  0.7565 -0.5440  0.3630
              Bcc     0.6021    80.793    28.829    26.950 -0.3577  0.1205  0.9260
 
              Baa    -0.3061   -41.069   -14.655   -13.699  0.6063 -0.5810  0.5430
     5 C(13)  Bbb    -0.2942   -39.480   -14.087   -13.169  0.5590  0.7970  0.2286
              Bcc     0.6003    80.549    28.742    26.868 -0.5656  0.1650  0.8080
 
              Baa    -0.0085    -1.139    -0.407    -0.380  0.9106  0.1188  0.3959
     6 C(13)  Bbb     0.0031     0.422     0.151     0.141 -0.4104  0.1456  0.9002
              Bcc     0.0053     0.717     0.256     0.239 -0.0493  0.9822 -0.1814
 
              Baa    -0.0087    -1.164    -0.415    -0.388  0.1062  0.9936 -0.0396
     7 C(13)  Bbb     0.0022     0.295     0.105     0.098 -0.1263  0.0530  0.9906
              Bcc     0.0065     0.870     0.310     0.290  0.9863 -0.1002  0.1311
 
              Baa    -0.0145    -7.725    -2.756    -2.577  0.0633  0.7604 -0.6464
     8 H(1)   Bbb    -0.0065    -3.462    -1.235    -1.155 -0.4982  0.5853  0.6397
              Bcc     0.0210    11.186     3.991     3.731  0.8647  0.2816  0.4159
 
              Baa    -0.0314   -16.743    -5.974    -5.585 -0.1867  0.9282 -0.3218
     9 H(1)   Bbb    -0.0048    -2.575    -0.919    -0.859 -0.3485  0.2436  0.9051
              Bcc     0.0362    19.319     6.893     6.444  0.9185  0.2811  0.2780
 
              Baa    -0.1288   -68.743   -24.529   -22.930  0.2515  0.9633 -0.0937
    10 H(1)   Bbb    -0.1276   -68.069   -24.289   -22.705  0.6570 -0.0989  0.7474
              Bcc     0.2564   136.812    48.818    45.636  0.7107 -0.2495 -0.6578
 
              Baa    -0.0420   -22.427    -8.003    -7.481  0.6434 -0.5635  0.5181
    11 H(1)   Bbb    -0.0057    -3.031    -1.081    -1.011 -0.6848 -0.1211  0.7186
              Bcc     0.0477    25.458     9.084     8.492  0.3422  0.8172  0.4638
 
              Baa    -0.0368   -19.621    -7.001    -6.545  0.7958  0.3702  0.4793
    12 H(1)   Bbb    -0.0063    -3.361    -1.199    -1.121 -0.6054  0.4631  0.6474
              Bcc     0.0431    22.982     8.201     7.666 -0.0177  0.8053 -0.5926
 
              Baa    -0.0058    -3.117    -1.112    -1.040 -0.2116  0.7365  0.6425
    13 H(1)   Bbb    -0.0032    -1.694    -0.604    -0.565  0.4931  0.6480 -0.5805
              Bcc     0.0090     4.811     1.717     1.605  0.8439 -0.1939  0.5003
 
              Baa    -0.0057    -3.054    -1.090    -1.019  0.6621  0.7093  0.2418
    14 H(1)   Bbb    -0.0013    -0.709    -0.253    -0.236 -0.3742  0.0334  0.9267
              Bcc     0.0071     3.763     1.343     1.255 -0.6493  0.7041 -0.2875
 
              Baa    -0.0057    -3.055    -1.090    -1.019 -0.2911 -0.5587  0.7766
    15 H(1)   Bbb    -0.0033    -1.754    -0.626    -0.585  0.0668  0.7979  0.5990
              Bcc     0.0090     4.809     1.716     1.604  0.9544 -0.2262  0.1949
 
              Baa    -0.0041    -2.198    -0.784    -0.733  0.3036  0.2783  0.9113
    16 H(1)   Bbb    -0.0010    -0.516    -0.184    -0.172  0.9525 -0.0663 -0.2971
              Bcc     0.0051     2.714     0.968     0.905 -0.0223  0.9582 -0.2852
 
              Baa    -0.0062    -3.295    -1.176    -1.099  0.0745 -0.0756  0.9943
    17 H(1)   Bbb    -0.0017    -0.909    -0.324    -0.303  0.9915 -0.1013 -0.0820
              Bcc     0.0079     4.204     1.500     1.402  0.1069  0.9920  0.0674
 
              Baa    -0.0052    -2.786    -0.994    -0.929 -0.5272  0.3235  0.7857
    18 H(1)   Bbb    -0.0027    -1.453    -0.518    -0.485  0.8327  0.0122  0.5537
              Bcc     0.0079     4.239     1.512     1.414  0.1696  0.9461 -0.2758
 

 ---------------------------------------------------------------------------------

 No NMR shielding tensors so no spin-rotation constants.
 Leave Link  601 at Thu Apr 26 16:18:27 2018, MaxMem=  671088640 cpu:      26.3
 (Enter /shared/apps/gaussian/G09_LINUX_LINDA/g09/l701.exe)
 Compute integral second derivatives.
 ... and contract with generalized density number  0.
 Leave Link  701 at Thu Apr 26 16:18:28 2018, MaxMem=  671088640 cpu:       9.8
 (Enter /shared/apps/gaussian/G09_LINUX_LINDA/g09/l702.exe)
 L702 exits ... SP integral derivatives will be done elsewhere.
 Leave Link  702 at Thu Apr 26 16:18:29 2018, MaxMem=  671088640 cpu:       0.3
 (Enter /shared/apps/gaussian/G09_LINUX_LINDA/g09/l703.exe)
 Compute integral second derivatives, UseDBF=F ICtDFT=           0.
 Integral derivatives from FoFDir, PRISM(SPDF).
 Calling FoFJK, ICntrl=    100147 FMM=F ISym2X=0 I1Cent= 0 IOpClX= 1 NMat=1 NMatS=1 NMatT=0.
 FoFCou: FMM=F IPFlag=           0 FMFlag=      100000 FMFlg1=         800
         NFxFlg=           0 DoJE=F BraDBF=F KetDBF=F FulRan=T
         Omega=  0.000000  0.000000  1.000000  0.000000  0.000000 ICntrl=  100147 IOpCl=  1
         NMat0=    1 NMatS0=    1 NMatT0=    0 NMatD0=    1 NMtDS0=    0 NMtDT0=    0
         I1Cent=           0 NGrid=           0.
 Symmetry not used in FoFCou.
 Leave Link  703 at Thu Apr 26 16:18:33 2018, MaxMem=  671088640 cpu:      31.8
 (Enter /shared/apps/gaussian/G09_LINUX_LINDA/g09/l716.exe)
 Dipole        = 3.56483747D-01-6.11785760D-01-4.71867172D-01
 Polarizability= 0.00000000D+00 0.00000000D+00 0.00000000D+00
                 0.00000000D+00 0.00000000D+00 0.00000000D+00
 ***** Axes restored to original set *****
 -------------------------------------------------------------------
 Center     Atomic                   Forces (Hartrees/Bohr)
 Number     Number              X              Y              Z
 -------------------------------------------------------------------
      1        8          -0.000026095   -0.000010063   -0.000005798
      2        8          -0.000837626   -0.000561025   -0.000097036
      3        6           0.000008758   -0.000493920    0.000128032
      4        6          -0.000091788    0.000097688   -0.000103422
      5        6           0.000013680   -0.000007460    0.000024809
      6        6           0.000035446    0.000005273   -0.000019499
      7        6          -0.000016219   -0.000021257   -0.000026258
      8        1          -0.000075199    0.000171654    0.000096763
      9        1           0.000023468    0.000014795    0.000011707
     10        1           0.000020915    0.000002309    0.000027166
     11        1           0.000240786    0.000201035   -0.000076725
     12        1           0.000712512    0.000591267    0.000036636
     13        1          -0.000000027   -0.000000866   -0.000007303
     14        1          -0.000003282    0.000000485    0.000016403
     15        1          -0.000015566   -0.000011129   -0.000002685
     16        1           0.000010168    0.000012176    0.000000957
     17        1           0.000000129    0.000011650   -0.000004837
     18        1          -0.000000059   -0.000002613    0.000001091
 -------------------------------------------------------------------
 Cartesian Forces:  Max     0.000837626 RMS     0.000207730
 Leave Link  716 at Thu Apr 26 16:18:33 2018, MaxMem=  671088640 cpu:       1.4
 (Enter /shared/apps/gaussian/G09_LINUX_LINDA/g09/l103.exe)

 GradGradGradGradGradGradGradGradGradGradGradGradGradGradGradGradGradGrad
 Berny optimization.
 Red2BG is reusing G-inverse.
 Internal  Forces:  Max     0.002649710 RMS     0.000514138
 Search for a saddle point.
 Step number   1 out of a maximum of   81
 All quantities printed in internal units (Hartrees-Bohrs-Radians)
[...]
 .7407227,-6.1294928,0.1580423,1.1553066,-0.4026559,0.9311044,-0.130833
 7,0.6039525,-1.0771499,1.1877607,4.4544725,0.3282111,1.9174978,1.76951
 33,4.0587368,0.6480925,2.1526804,0.9017126,2.4115385,3.1367778,0.55191
 74,-1.4291177,-0.6118515,1.3699443,0.2936582,-0.3019941,-0.1570841,2.0
 138385,-8.7410507,-0.4498763,2.8012294,-0.9571785,1.9734755,-1.041602,
 2.2610153,0.9879713,-2.9753867,1.9506203,1.798487,-0.1953523,-0.326571
 3,-2.2021607,0.585707,0.6795557,0.3776366,0.7025724,-1.6216516,0.81662
 19,-1.9310485,-0.7897571,-1.2584354,1.0398953,-0.8050004,2.5089999,-1.
 9927655,-6.2491695,11.4962682,0.6006115,0.0606519,2.7368272,0.1734276,
 0.6801045,1.9487862,2.2486555,0.6536971,0.4483142,1.3015274,0.3031262,
 3.2795075,-0.4266498,0.9404213,3.3075612,-0.0206035,1.537222,-2.292824
 6,2.0185603,-1.1925128,1.2893505,-0.3774523,-0.9723178,0.7435471,-1.70
 12802,2.6439681,-0.2738104,1.3320555,0.7088119,-0.7327575,0.1333693,0.
 4726183,-1.6884892,1.306366,0.3099214,0.7461067,-1.0052496,-0.7065075,
 1.9756549,0.7831046,-0.3045276,0.0722234,0.0672236,-5.2396244,-0.28051
 1,3.3904873,-3.2294575,-0.4567436,0.246766,1.3507283,0.3885464,-3.2940
 072,4.7390061,7.0406948,2.0752547,0.4873959,3.8489876,0.9455714,2.8528
 715,1.6063851,2.4900702,1.5602934,1.1960154,2.348867,0.7201886,1.21911
 49,1.1689464,0.5926717,3.7620158,1.236762,3.9588339\HyperPolar=-974.02
 18088,301.0519126,-22.2528928,-4.0613888,-121.1179999,60.2662329,4.018
 022,-3.474578,32.9903506,-91.7907822\PG=C01 [X(C5H11O2)]\NImag=1\\0.02
 710731,-0.17112245,0.30882288,0.01853712,0.02727386,0.03921521,-0.1306
 2122,0.15824631,0.02984502,0.28180954,0.10318211,-0.23800387,-0.055351
 59,-0.21142964,0.24859434,-0.00379311,-0.01623831,-0.05758940,0.168925
 00,-0.01049014,0.57370227,0.06580356,0.01117215,-0.01154350,-0.0111336
 1,0.01622276,0.00140168,0.42379655,-0.03743670,-0.00694427,0.00651181,
 0.00419783,-0.00866988,-0.00055810,-0.24191266,0.35722595,0.03333315,0
 .00419819,-0.00560923,-0.00620868,0.00923852,0.00101284,0.02641906,0.0
 4258234,0.74968260,-0.01723018,-0.00332916,0.00314802,0.00281830,-0.00
 436364,-0.00028857,-0.15176377,0.07290424,-0.11388591,0.46179754,0.016
 35626,0.00351039,-0.00300407,-0.00265798,0.00391338,0.00031559,0.07803
 817,-0.11250654,0.07733080,-0.22999279,0.38636507,-0.03655976,-0.00513
 110,0.00638268,0.00691154,-0.00995477,-0.00091093,-0.08017186,0.046041
 64,-0.29931540,0.08082885,-0.02816633,0.69473218,-0.23863048,-0.047559
 43,0.04069757,0.02904502,-0.05229601,-0.00423540,-0.11247317,0.0559146
 3,0.06132006,-0.04650646,0.04048962,-0.06282503,0.18154637,-0.09513863
 ,-0.01821380,0.01587608,0.01407064,-0.01794970,-0.00228434,0.13487066,
 -0.17375558,-0.01634246,0.01535121,-0.00822064,0.00588841,-0.22725079,
 0.50491332,0.01962591,0.00612654,-0.00101719,-0.00011023,0.00344833,0.
 00003586,-0.00552632,-0.00265277,-0.12498794,-0.02101398,0.01780429,0.
 01467979,0.03661065,0.02791870,0.68265515,-0.00165940,0.00010778,0.000
 34278,0.00054585,-0.00068808,-0.00005322,-0.01304588,0.01731675,-0.000
 04228,-0.17056152,0.08065719,0.01384589,0.00503455,0.00439506,-0.00167
 811,0.57616271,-0.00062499,-0.00016681,0.00013772,0.00016934,-0.000166
 81,-0.00003367,0.01619761,-0.00720029,0.00103579,0.08078012,-0.1510722
 7,-0.01601215,0.00421194,0.00617210,-0.00031215,0.02126657,0.58089317,
 0.00248057,-0.00024970,-0.00038926,-0.00080399,0.00101398,0.00009716,-
 0.02270785,0.01992375,0.00890919,0.01781731,-0.01829731,-0.10965764,0.
 00049173,0.00068212,-0.00466387,0.00278873,0.00229791,0.66829107,0.001
 90027,-0.00012758,-0.00022197,-0.00053355,0.00078387,0.00009399,0.0104
 6196,-0.00531373,-0.01727637,-0.10240371,0.02074987,0.02533531,0.00026
 862,-0.00315465,-0.00014466,-0.00278904,0.00821751,0.02895467,0.643029
 45,-0.00053896,0.00013140,-0.00014333,0.00016402,-0.00031537,-0.000017
 77,-0.00395726,0.01009028,0.01230130,0.02061416,-0.10141636,-0.0321649
 7,-0.00344558,-0.00161327,0.00065340,0.00645070,-0.00307718,-0.0255399
 7,-0.03590713,0.62895272,-0.00121102,0.00016675,0.00015681,0.00034953,
 -0.00050518,-0.00002743,0.00299486,-0.00550737,-0.02563008,0.02511566,
 -0.03339742,-0.23179716,0.00067609,0.00029874,0.00071627,0.00438687,-0
 .00404011,-0.00442386,0.00517071,-0.00818506,0.55558957,-0.02014930,0.
 01521920,-0.02181894,-0.10445952,0.05441514,-0.17176758,-0.00041465,0.
 00017421,0.00023924,0.00012214,-0.00017021,0.00000539,0.00075385,0.000
 41484,-0.00121821,-0.00001196,0.00003784,0.00007625,0.00000152,0.00000
 094,-0.00001164,0.12764924,0.03709154,-0.02556952,0.03704868,0.0376033
 7,-0.03828862,0.02808597,-0.00116539,0.00045090,-0.00027782,0.00025404
 ,-0.00027517,0.00051119,0.00301346,0.00130147,-0.00104537,0.00004242,0
 .00003475,-0.00001796,-0.00002094,-0.00000219,0.00001709,-0.07123696,0
 .06512147,0.00937175,-0.01028739,0.02085612,-0.21261299,0.07336202,-0.
 51284785,0.00194625,-0.00083596,0.00098092,-0.00049353,0.00044987,-0.0
 0115990,-0.00504172,-0.00189732,0.00080352,-0.00009323,-0.00002610,0.0
 0013645,0.00007999,-0.00002532,-0.00005986,0.19759390,-0.06424681,0.49
 148436,0.00238618,0.00014205,-0.00044082,-0.00075857,0.00070108,0.0000
 0905,-0.07906030,0.03888564,0.06564663,0.00926066,-0.00583412,-0.01494
 438,-0.00010266,0.01220878,0.02626411,-0.00265790,-0.00394699,-0.00155
 571,0.00308855,0.00729170,-0.00202187,0.00001455,-0.00000493,0.0001342
 4,0.07394950,0.00012420,0.00019499,0.00011940,0.00005929,0.00002129,-0
 .00001491,0.03750304,-0.08460320,-0.09449051,-0.00146185,0.00711715,0.
 01440508,0.00628840,-0.00601397,-0.02108842,-0.00358289,-0.00361165,0.
 00170138,0.00685776,0.00538440,0.00113455,-0.00004536,0.00000112,-0.00
 004047,-0.04988860,0.08311604,-0.00065605,0.00008237,0.00018291,0.0002
 4970,-0.00024519,0.00000178,0.06519087,-0.09008780,-0.31661127,0.00938
 722,-0.01139121,-0.02531771,-0.00188342,0.00133944,0.00239001,0.002054
 43,-0.00086023,0.00027505,-0.00392830,0.00215876,-0.00033918,-0.000022
 87,-0.00000769,-0.00005648,-0.07023527,0.09788453,0.33672530,0.2711810
 3,0.03544531,-0.05138269,-0.06197703,0.08037780,0.00936727,-0.11097554
 ,0.05104640,-0.04726444,0.02612815,-0.02335260,0.05321551,0.24288458,0
 .08624845,-0.02191368,0.00261540,0.00177022,-0.00316752,-0.00269423,0.
 00026785,0.00132223,-0.00297144,-0.00495850,0.00782270,-0.00300201,0.0
 0036077,0.00079560,-0.30356528,0.12047771,-0.02512434,-0.02376191,0.00
 371937,0.04191129,0.00077102,-0.03570772,0.03661740,-0.02441808,0.0145
 7908,-0.01278165,0.02650832,0.13340912,0.00705043,-0.01100508,0.000308
 22,-0.00007196,-0.00120971,-0.00103479,0.00030557,0.00047326,0.0017630
 9,-0.00248658,0.00255917,-0.00199079,-0.00066977,0.00007576,-0.1864269
 7,-0.00999544,-0.04034005,-0.00549283,-0.00414538,0.01398726,-0.010300
 04,-0.00365532,0.01239395,-0.00745361,0.00643274,-0.00438050,0.0038238
 0,-0.00699047,-0.03664863,-0.01225368,-0.02744872,-0.00023046,-0.00006
 901,0.00029311,0.00031044,0.00031413,0.00007196,-0.00362384,-0.0002978
 0,0.00013538,0.00034184,-0.00033696,-0.00026586,0.04905862,0.02688538,
 0.03860681,0.01854682,0.00100757,-0.00340997,-0.00245096,0.00601826,-0
 .00010974,-0.01017750,0.02024578,-0.03237637,0.00074145,0.00272577,0.0
 0653290,-0.03375882,0.03329630,-0.03155449,-0.00096296,-0.00070992,-0.
 00110653,-0.00001990,0.00046099,0.00047323,-0.00036610,-0.00030147,0.0
 0057400,-0.00015798,-0.00195573,0.00039080,-0.02562233,-0.02288211,0.0
 1863211,0.05428886,0.01455714,0.00054473,-0.00311709,-0.00264473,0.004
 78204,0.00014852,-0.00537227,-0.00279240,0.01720503,0.00583071,-0.0038
 8794,0.00172325,0.04932068,-0.12960176,0.12729437,0.00056825,0.0005626
 1,0.00082588,0.00013202,-0.00009032,-0.00075329,-0.00026988,-0.0001074
 9,0.00057975,-0.00102772,0.00000610,-0.00029465,-0.02031432,-0.0170530
 2,0.01371187,-0.03657429,0.13319722,0.00090489,0.00046123,0.00074889,0
 .00024615,-0.00067145,0.00007712,0.00117276,-0.00310703,0.00454921,0.0
 0145963,-0.00044353,0.00107115,-0.03980070,0.12579845,-0.28310780,0.00
 008253,0.00000864,0.00007601,0.00054143,-0.00009063,-0.00026259,0.0004
 3474,0.00026044,-0.00011207,-0.00077105,-0.00008837,0.00131465,-0.0015
 0822,0.00083328,-0.00240926,0.04125465,-0.13905976,0.29705170,0.019016
 97,0.00112248,-0.00332819,-0.00147106,0.00612609,0.00037437,-0.0065208
 8,0.02093715,0.02226044,0.00279944,-0.00378942,0.00520034,-0.02852185,
 0.02231618,0.00344811,-0.00046995,-0.00048474,-0.00010839,-0.00037660,
 0.00016193,-0.00039342,-0.00029339,-0.00030578,0.00058874,-0.00271760,
 0.00567494,-0.00036787,-0.02923244,-0.02512189,-0.00995384,0.00032901,
 -0.00389795,-0.00319913,0.04714138,0.01444566,0.00061697,-0.00207763,-
 0.00197914,0.00470759,0.00035810,-0.00865864,-0.00338582,-0.02143282,0
 .00158327,-0.00128117,0.00284543,0.03817706,-0.16190853,-0.14968657,0.
 00023129,0.00023399,0.00019664,0.00080782,-0.00083280,-0.00014701,-0.0
 0019657,-0.00018681,0.00049355,0.00344443,-0.00091369,0.00055001,-0.02
 197899,-0.01831442,-0.00793621,-0.00163749,0.01435409,0.01550750,-0.02
 334121,0.16603434,-0.00409104,-0.00067186,0.00144490,-0.00009307,-0.00
 044235,-0.00004944,0.00479191,-0.00121554,0.00481843,-0.00073532,0.001
 27774,-0.00206914,0.00867137,-0.14506733,-0.26014501,0.00004230,-0.000
 10770,0.00007588,-0.00033077,0.00014923,-0.00095815,0.00004578,0.00000
 918,-0.00023441,-0.00108864,-0.00045172,0.00122717,0.00672499,0.003322
 26,-0.00076224,0.00091812,-0.01844438,-0.01932293,-0.01276102,0.159285
 25,0.27752051,0.00121635,-0.00011650,-0.00022470,-0.00037300,0.0004677
 3,0.00005773,-0.00233289,0.00212900,0.00188652,0.00575064,0.02757014,-
 0.01606444,-0.00066972,-0.00087142,-0.00050895,-0.06728981,-0.04954566
 ,0.02888346,0.00066497,-0.00078593,-0.00079866,0.00002927,-0.00001670,
 0.00005859,0.00052028,0.00068146,-0.00019633,-0.00170938,-0.00046255,0
 .00014049,-0.00005358,0.00001795,-0.00002729,0.00003500,-0.00003462,0.
 00002405,0.07249788,-0.00158736,0.00020616,0.00027526,0.00050954,-0.00
 064124,-0.00006844,0.00126797,-0.00179709,-0.00291280,-0.00145906,-0.0
 1965695,0.01317227,-0.00005406,0.00051351,0.00056244,-0.05238930,-0.26
 564027,0.10941534,-0.00061426,0.00044319,0.00096479,-0.00005832,0.0000
 1422,-0.00007875,-0.00041289,-0.00040864,0.00008612,0.00206229,0.00060
 804,-0.00018174,0.00016953,-0.00004246,0.00002066,0.00003339,-0.000031
 02,-0.00006859,0.05420737,0.28813965,0.00019681,0.00000180,-0.00004522
 ,-0.00005448,0.00003831,0.00001161,-0.00031759,0.00029830,-0.00046731,
 -0.00336406,-0.00429845,0.00307711,0.00021851,0.00009021,0.00019626,0.
 02963431,0.10863081,-0.11833579,-0.00025767,-0.00028481,0.00020875,0.0
 0001490,0.00000658,0.00000308,0.00030597,0.00043334,0.00035534,-0.0002
 7717,-0.00009726,0.00006337,-0.00003351,-0.00002783,-0.00002082,-0.000
 05613,-0.00001498,0.00006092,-0.03167079,-0.12306691,0.12130606,-0.000
 08107,-0.00005637,-0.00002141,0.00001272,-0.00001219,-0.00001268,0.001
 44615,-0.00122838,0.00196397,-0.00326309,0.00340303,0.02851518,-0.0003
 1987,-0.00026511,-0.00010584,-0.06530984,0.00757293,0.03711314,-0.0040
 4968,0.00415021,-0.00091878,-0.00000448,0.00000422,0.00000598,-0.00026
 782,0.00052035,-0.00096593,0.00012513,0.00014376,0.00002113,0.00007612
 ,0.00001070,-0.00002514,0.00017688,-0.00012248,-0.00001321,-0.00161840
 ,0.00186257,0.00815253,0.06546522,0.00018153,0.00004440,-0.00001276,-0
 .00003217,0.00003169,0.00001312,-0.00178846,0.00085959,-0.00167090,0.0
 0172137,-0.00453336,-0.02527865,0.00026429,0.00012538,0.00010061,0.007
 85909,-0.06884229,-0.04908155,0.00443417,-0.00291521,0.00092050,0.0000
 0296,0.00000309,-0.00000074,0.00056124,0.00006390,0.00086291,-0.000299
 41,-0.00016349,0.00001615,-0.00004097,-0.00002892,0.00002986,-0.000130
 03,0.00008768,0.00000831,-0.00358005,0.00891348,0.03246173,-0.01230551
 ,0.06848687,-0.00032100,0.00006112,0.00009631,0.00011198,-0.00014299,0
 .00000496,-0.00191168,0.00151552,-0.00034407,-0.00022526,0.00003413,-0
 .00364702,0.00002901,-0.00007487,0.00064343,0.04105913,-0.05250934,-0.
 33414644,0.00127019,-0.00104107,0.00125370,-0.00001315,0.00000158,-0.0
 0002959,-0.00034318,0.00041356,0.00124466,0.00037824,0.00011795,-0.000
 08471,0.00008359,-0.00006492,0.00002052,-0.00013824,0.00014730,0.00003
 783,0.00163030,-0.00282518,-0.01469695,-0.04278821,0.05602355,0.361506
 54,0.00122761,-0.00016418,-0.00020101,-0.00042424,0.00054615,0.0000329
 2,-0.00199213,0.00157999,0.00335232,-0.02321277,-0.00612089,-0.0135526
 1,0.00154580,0.00128093,-0.00100007,-0.26094255,-0.08457476,-0.0905601
 8,0.00067406,-0.00070080,-0.00089670,0.00005603,-0.00001499,0.00007019
 ,-0.00046705,-0.00061104,0.00006578,-0.00130522,-0.00069806,0.00018254
 ,-0.00042463,0.00033332,0.00003499,-0.00022874,0.00011560,0.00003485,-
 0.00654946,-0.00414920,-0.00268606,0.00720785,0.00261914,0.00151337,0.
 28400083,-0.00042267,0.00008403,0.00006748,0.00013031,-0.00016960,-0.0
 0001310,0.00197563,-0.00196988,-0.00179817,0.02506666,0.00981780,0.012
 75921,-0.00114691,-0.00138139,0.00089189,-0.08189315,-0.08905759,-0.03
 964606,-0.00076246,0.00061124,0.00062731,-0.00002258,-0.00000353,-0.00
 002250,0.00057877,0.00055258,0.00003846,0.00033778,0.00025494,-0.00006
 670,0.00038213,-0.00026293,0.00000954,0.00012238,-0.00004945,-0.000049
 15,-0.02912978,-0.01147584,-0.01400367,-0.00446281,-0.00266477,-0.0018
 1279,0.08972172,0.09586309,-0.00002457,0.00003477,0.00000105,0.0000000
 7,-0.00001459,0.00000121,-0.00040867,-0.00005316,-0.00066092,0.0038109
 9,0.00375924,0.00252633,0.00013966,0.00028058,0.00041207,-0.08996485,-
 0.03990538,-0.10118157,0.00019351,0.00027884,0.00020257,0.00000714,-0.
 00000420,-0.00000355,-0.00035823,-0.00030928,0.00048634,0.00004974,-0.
 00006374,-0.00001143,0.00000076,-0.00004336,-0.00002293,-0.00013419,0.
 00006511,-0.00001991,0.01636665,0.00594955,0.00790385,-0.03225167,-0.0
 1311377,-0.01201292,0.10240383,0.04323825,0.10201309,0.00001502,-0.000
 01772,0.00009777,-0.00000589,-0.00002310,0.00000158,-0.00057049,0.0002
 6617,-0.00035772,-0.00329337,0.00149082,0.00017503,-0.00026874,0.00127
 612,-0.00093200,0.00103039,-0.00002175,0.00143157,-0.23414005,0.144609
 17,0.02547989,0.00001198,0.00002343,-0.00000306,0.00005537,-0.00007225
 ,0.00009611,0.00004434,0.00000596,-0.00005929,0.00006746,-0.00040263,-
 0.00041254,0.00020362,-0.00007360,-0.00199982,-0.00004420,0.00020688,-
 0.00014089,-0.00001293,0.00050680,0.00001538,0.00055246,-0.00022377,-0
 .00010585,0.24947727,0.00078305,-0.00008547,0.00010237,-0.00017800,0.0
 0025487,0.00006534,0.00028614,-0.00020673,0.00033720,0.00392302,-0.005
 12724,0.00000882,0.00093612,-0.00058052,0.00087433,-0.00020383,0.00071
 819,-0.00203518,0.14390145,-0.17740106,-0.02134145,-0.00000503,-0.0000
 0284,0.00001015,-0.00010915,-0.00003605,-0.00004078,-0.00098038,-0.000
 32775,-0.00023524,-0.00021130,0.00015257,0.00026059,0.00069858,0.00022
 221,0.00233253,-0.00029839,0.00055638,0.00009294,0.00067908,-0.0000084
 7,-0.00010336,0.00027240,-0.00000240,0.00013857,-0.16174832,0.18769914
 ,-0.00041130,-0.00000102,0.00015519,0.00014974,-0.00015149,-0.00000819
 ,0.00020829,0.00012995,0.00240100,0.03020743,-0.02479720,0.00111813,-0
 .00107833,-0.00019243,-0.00119254,-0.00039942,-0.00008428,-0.00757094,
 0.02182606,-0.01846633,-0.06401265,-0.00003526,-0.00000292,-0.00002580
 ,0.00008651,-0.00007931,0.00049159,0.00040930,0.00042084,-0.00021372,0
 .00007563,0.00025138,0.00035551,-0.00112176,0.00172740,-0.00190248,-0.
 00029875,-0.00013035,0.00017063,0.00166969,-0.00155867,-0.00039946,0.0
 0005348,0.00033992,0.00014006,-0.02427055,0.02028973,0.06657792,-0.000
 05728,0.00000200,0.00004553,0.00002865,-0.00007316,0.00002946,-0.00095
 913,0.00076144,0.00008397,-0.00009308,-0.00439584,0.00217230,0.0000303
 9,0.00035486,-0.00030606,0.00008623,-0.00043243,0.00009059,-0.06997688
 ,-0.04809313,0.03202648,0.00000781,0.00000609,-0.00001836,0.00023058,0
 .00005348,0.00001961,0.00009881,0.00005785,-0.00001101,-0.00006337,-0.
 00020603,-0.00023361,0.00023104,-0.00040583,0.00010638,-0.00000172,0.0
 0042415,0.00026877,0.00007596,0.00011219,-0.00022501,-0.00004742,-0.00
 014912,0.00010980,0.00857289,0.02510574,-0.01621453,0.06828517,-0.0007
 0988,0.00004237,0.00008482,0.00020520,-0.00021916,-0.00004492,-0.00007
 950,-0.00051272,-0.00117311,0.00335917,0.01098163,-0.00449237,-0.00034
 551,-0.00040033,0.00012646,0.00008282,0.00027812,0.00000413,-0.0477082
 5,-0.25377010,0.11833033,-0.00003365,-0.00000259,-0.00002132,-0.000624
 30,-0.00045469,-0.00000660,0.00083395,0.00034153,-0.00009422,0.0000684
 0,0.00017289,0.00018316,-0.00017653,0.00039154,-0.00005128,-0.00008990
 ,0.00031030,-0.00017951,-0.00012316,0.00037484,0.00007845,-0.00000726,
 -0.00011299,0.00000099,-0.00566171,-0.01872836,0.01086582,0.05428710,0
 .27453832,0.00139393,-0.00019692,-0.00020895,-0.00041059,0.00054195,0.
 00008540,0.00323357,-0.00266758,-0.00265717,0.00484898,0.03200283,-0.0
 2319618,0.00186809,0.00048759,-0.00000293,-0.00092770,0.00088249,0.001
 19544,0.03310528,0.12068094,-0.12789576,0.00005182,-0.00001682,0.00005
 558,-0.00203561,-0.00124785,-0.00088843,-0.00167896,-0.00062819,0.0001
 3098,-0.00017319,0.00000944,-0.00003677,-0.00012700,0.00009457,0.00022
 058,0.00059182,-0.00113797,0.00015431,-0.00053694,-0.00026505,0.000333
 57,0.00003275,-0.00014502,0.00005067,-0.00215892,-0.00370427,0.0023428
 7,-0.03469710,-0.13080932,0.14062489,0.00002781,0.00002853,-0.00012061
 ,-0.00005143,0.00004484,-0.00003273,-0.00008828,-0.00046777,0.00090642
 ,0.00890963,0.00483296,0.00137982,0.00014260,0.00059657,0.00006380,0.0
 0022567,0.00011716,-0.00011784,-0.24310575,-0.09074287,-0.09174349,0.0
 0002445,-0.00001291,0.00001656,-0.00031378,-0.00050594,0.00000591,-0.0
 0002255,-0.00013927,0.00017924,0.00000842,-0.00006097,-0.00015410,-0.0
 0010084,-0.00037657,-0.00024687,-0.00007221,-0.00001926,0.00006657,0.0
 0034116,-0.00008618,-0.00012545,0.00032958,-0.00010213,0.00016589,-0.0
 2169513,-0.01285118,-0.01085623,-0.00644864,-0.00327699,-0.00238022,0.
 26188932,0.00038243,-0.00009024,-0.00002909,-0.00015355,0.00020776,0.0
 0000606,0.00110777,-0.00089972,0.00028751,-0.00536055,-0.00094614,-0.0
 0266329,0.00007298,-0.00043672,-0.00001101,-0.00052889,0.00001422,0.00
 001632,-0.09124067,-0.10448493,-0.04905640,0.00001034,-0.00000168,0.00
 002817,0.00002577,0.00025409,-0.00014423,-0.00043965,-0.00010076,-0.00
 003330,-0.00006144,0.00009500,0.00008743,0.00005442,0.00025527,0.00018
 540,-0.00014214,-0.00001142,-0.00008061,0.00022914,0.00016562,0.000181
 34,0.00057191,-0.00003331,-0.00023843,0.01985950,0.01290352,0.01143899
 ,-0.02740937,-0.01323060,-0.01388080,0.10302198,0.10634004,0.00156378,
 -0.00013750,-0.00023543,-0.00048195,0.00062668,0.00005836,0.00283426,-
 0.00286440,-0.00250355,-0.03223698,-0.01300278,-0.01952584,0.00079048,
 -0.00054789,0.00003365,-0.00084771,0.00096678,0.00102001,-0.09472185,-
 0.05057734,-0.10279293,0.00004232,-0.00002331,0.00007408,0.00100640,0.
 00205597,-0.00121584,-0.00195153,-0.00078325,0.00025274,-0.00017198,0.
 00005580,0.00003042,-0.00018282,0.00002434,0.00005749,0.00015030,0.000
 02429,0.00005478,0.00019821,0.00054535,0.00021964,0.00111961,-0.000414
 90,0.00017598,0.00314334,0.00294771,0.00157288,0.01675277,0.00719848,0
 .00969190,0.10299335,0.05390596,0.11303167\\0.00000014,0.00000107,-0.0
 0000030,-0.00000136,-0.00000030,-0.00000018,-0.00000026,0.00000039,-0.
 00000101,-0.00000026,-0.00000021,0.00000040,0.00000208,0.00000116,-0.0
 0000045,-0.00000009,-0.00000006,-0.00000004,-0.00000007,0.00000019,-0.
 00000003,-0.00000005,-0.00000002,0.,0.00000020,0.,0.,-0.00000008,-0.00
 000108,0.00000238,0.00000040,0.00000009,-0.00000070,-0.00000075,-0.000
 00110,-0.00000003,0.,0.00000003,0.00000002,0.,-0.00000002,-0.00000001,
 0.,0.,-0.00000001,-0.00000012,-0.00000021,0.,0.00000017,-0.00000002,0.
 00000003,0.00000004,0.00000008,-0.00000006\\\@


 Make no judgements where you have no compassion.
                               -- Anne McCaffrey
 Job cpu time:  0 days  0 hours 11 minutes 32.4 seconds.
 File lengths (MBytes):  RWF=    136 Int=      0 D2E=      0 Chk=      3 Scr=      1
 Normal termination of Gaussian 09 at Thu Apr 26 16:23:34 2018.
